# vtk DataFile Version 4.1
Header:
ASCII

DATASET UNSTRUCTURED_GRID
POINTS 392 double
-0.46928905757420614 -0.47039395605998174 0.0
-0.4764535627709108 -0.46766539084956255 0.0
-0.33896866307747175 -0.49835857821710294 0.0
-0.3543646702558617 -0.496914507553757 0.0
-0.36435845204011696 -0.4957408491005276 0.0
-0.37626596445606864 -0.49397842523891816 0.0
-0.3819012942002071 -0.49314261879345905 0.0
-0.3853897889626453 -0.49262157698078035 0.0
-0.392301996410805 -0.49127878934534 0.0
-0.40769800358919506 -0.4881312671142203 0.0
-0.4189686630774717 -0.48550124660330396 0.0
-0.4343646702558617 -0.48146341917365154 0.0
-0.4456353297441383 -0.4781696012478494 0.0
-0.4610313369225284 -0.47320855075332935 0.0
-0.20411301162617887 -0.490621254379932 0.0
-0.21534996836102124 -0.4926066339679599 0.0
-0.2209852981051596 -0.4935993890391223 0.0
-0.22514434854870724 -0.49432626674498126 0.0
-0.23230199641080496 -0.49527369624889883 0.0
-0.247698003589195 -0.4971352440843322 0.0
-0.2589686630774717 -0.4981934149385797 0.0
-0.27436467025586164 -0.499222843640039 0.0
-0.28563532974413836 -0.49967484907902865 0.0
-0.30103133692252837 -0.49988032220218637 0.0
-0.312301996410805 -0.49972975409537923 0.0
-0.32769800358919504 -0.4991129212544251 0.0
-0.12605226052615826 -0.46861638312123755 0.0
-0.14114305318887024 -0.47394310753547797 0.0
-0.15230199641080497 -0.47753812304098775 0.0
-0.16769800358919495 -0.48203316364179805 0.0
-0.1789686630774716 -0.4849920775659922 0.0
-0.19436467025586165 -0.48858094014130354 0.0
-0.603559176201294 -0.3971192083554865 0.0
-0.6132830264163194 -0.3894674167710386 0.0
-0.6189183561604578 -0.3849299219150722 0.0
-0.6245905131238224 -0.3801850470139374 0.0
-0.6309398770376543 -0.374549717269799 0.0
-0.642614504882623 -0.36389858499254385 0.0
-0.6482498346267613 -0.35866456863956037 0.0
-0.6519712139601826 -0.3550161023128183 0.0
-0.6574030282479988 -0.34938077256868005 0.0
-0.6685216415261693 -0.337633231717032 0.0
-0.4820888925150491 -0.4654882067780477 0.0
-0.49032039449673454 -0.4622685944876588 0.0
-0.4989686630774716 -0.45852783008465786 0.0
-0.5143646702558616 -0.4515274839669033 0.0
-0.5236388723237758 -0.4470706141113839 0.0
-0.5335804563945876 -0.4418945653411375 0.0
-0.5392157861387259 -0.4389197965274236 0.0
-0.5446702092463042 -0.4359686257578326 0.0
-0.552301996410805 -0.43145383314922064 0.0
-0.567698003589195 -0.4220703611264474 0.0
-0.5749891659424633 -0.41751523485488556 0.0
-0.5795129847594356 -0.41445387046885973 0.0
-0.585148314503574 -0.4104987536935669 0.0
-0.5960205028649915 -0.4027545380996248 0.0
-0.12041693078201995 -0.4666262497939378 0.0
-0.12011171626634191 -0.4665158288441596 0.0
-0.11436467025586165 -0.4641046783752741 0.0
-0.09896866307747162 -0.45762771373936356 0.0
-0.087698003589195 -0.4524985323147047 0.0
-0.07230199641080498 -0.4449623126972083 0.0
0.06248673162247911 -0.3440946200651436 0.0
0.05106693670942104 -0.355738166291145 0.0
0.04543160696528273 -0.3613788425525992 0.0
0.041455394699950764 -0.36514591046193823 0.0
0.03512337033086127 -0.3707812402060766 0.0
0.02180017030507648 -0.3824101794751277 0.0
0.01616484056093815 -0.38728858726566834 0.0
0.014092033408332929 -0.3889877059404146 0.0
0.007698003589195011 -0.3938395489731712 0.0
-0.007698003589195009 -0.4053959119742652 0.0
-0.0144880143648037 -0.41040932111940187 0.0
-0.01764266160931676 -0.4125498466219516 0.0
-0.02327799135345509 -0.41622709903631905 0.0
-0.03551935128733204 -0.42413301396207637 0.0
-0.044788348102268824 -0.4297683437062147 0.0
-0.05787035840199329 -0.43725843595884745 0.0
-0.06350568814613161 -0.4404657314467505 0.0
-0.06581968502479717 -0.4417381334219555 0.0
0.1995402754450397 -0.3871638634405578 0.0
0.19828428460340128 -0.38679989014071015 0.0
0.19264895485926298 -0.38513009858397657 0.0
0.17850893852251137 -0.38093211651277836 0.0
0.16769800358919498 -0.3772858336794256 0.0
0.15230199641080497 -0.37152198579113804 0.0
0.14228553074619965 -0.36742322412968986 0.0
0.13031604481661888 -0.3619890469107857 0.0
0.12468071507248057 -0.35940649130566393 0.0
0.12125419382367131 -0.3577849953980036 0.0
0.11436467025586167 -0.354068523970386 0.0
0.09896866307747162 -0.34553643111291654 0.0
0.087698003589195 -0.3418681060983977 0.0
0.07230199641080498 -0.3403781486375259 0.0
0.327698003589195 -0.39888975438971846 0.0
0.31230199641080486 -0.3996617930398582 0.0
0.30103133692252826 -0.39985028716622645 0.0
0.2856353297441383 -0.3995932240462531 0.0
0.27436467025586164 -0.39902712508008964 0.0
0.2589686630774716 -0.3977375770623924 0.0
0.24769800358919497 -0.3964095561107014 0.0
0.23230199641080496 -0.39407088341486274 0.0
0.2210313369225283 -0.39196429512591835 0.0
0.20563532974413828 -0.3885476615857316 0.0
0.4610313369225283 -0.3659432814722709 0.0
0.4456353297441383 -0.3723323398725367 0.0
0.4343646702558616 -0.37655797204554825 0.0
0.4189686630774716 -0.38171355543604735 0.0
0.4108559883801183 -0.384248559729362 0.0
0.4040877561000605 -0.38601873686560384 0.0
0.39845242635592226 -0.3874753155417152 0.0
0.38982465145758993 -0.3896845853538313 0.0
0.3810313369225283 -0.3915449525918847 0.0
0.36563532974413826 -0.3944183005948668 0.0
0.3543646702558616 -0.3961329766903149 0.0
0.3389686630774716 -0.39794421089862053 0.0
0.520841399114525 -0.33348642684283447 0.0
0.5202254522132491 -0.3339046860891004 0.0
0.5143646702558616 -0.33745177160063067 0.0
0.4989686630774717 -0.34672433019065696 0.0
0.4892539553995715 -0.35220656642529413 0.0
0.4781088876212592 -0.357911755767392 0.0
0.4724735578771209 -0.360761767770064 0.0
0.4682226184770432 -0.3628429560214472 0.0
-0.7359319055966962 -0.24452004484822198 0.0
-0.7430313370473426 -0.2314504649325818 0.0
-0.7482967674175585 -0.2210313369225283 0.0
-0.7555827592620586 -0.2056353297441383 0.0
-0.6741569712703078 -0.3315347523561012 0.0
-0.6784343651705271 -0.32662093774477596 0.0
-0.6831335279062175 -0.3209856080006377 0.0
-0.6916944853529388 -0.3105034154335729 0.0
-0.697329815097077 -0.30329371602414784 0.0
-0.7041648648287459 -0.2940786434973643 0.0
-0.7082571203550465 -0.2884433137532259 0.0
-0.7126023206387857 -0.2822623791016195 0.0
-0.7177559297569251 -0.27436467025586164 0.0
-0.7274906514262938 -0.25896866307747163 0.0
-0.7315355274820522 -0.25248180185511016 0.0
-0.7328516127073347 -0.25015537459236026 0.0
0.5264767288586634 -0.32941687730562735 0.0
0.5412567891357776 -0.31871692045232525 0.0
0.5487720567311825 -0.3130815907081869 0.0
0.5545240893571903 -0.30838554038309907 0.0
0.5601594191013288 -0.30354666736599606 0.0
0.5698033936537109 -0.2950226707569847 0.0
0.5759057704185538 -0.2893873410128463 0.0
0.5829337992346507 -0.2825153304434677 0.0
0.5885691289787891 -0.27670180194558325 0.0
0.5969371073410823 -0.26769095728749176 0.0
0.6428062972146928 -0.20563532974413828 0.0
0.633099708731823 -0.22103133692252833 0.0
0.628938196246509 -0.22752217464293134 0.0
0.6272753211831689 -0.22985946590036682 0.0
0.6230278690576895 -0.23549479564450515 0.0
0.6130864891115033 -0.24855351156545968 0.0
0.6074511593673652 -0.2556704650230549 0.0
0.601996532135161 -0.2620556275433534 0.0
-0.758619516742834 -0.19910194158575825 0.0
-0.7596301006260776 -0.19664840036988515 0.0
-0.7618964647315105 -0.19101307062574685 0.0
-0.7670777027327592 -0.1780706046632299 0.0
-0.7708796064685874 -0.16769800358919495 0.0
-0.7760853626391079 -0.15230199641080497 0.0
-0.779553256558581 -0.1410313369225283 0.0
-0.783821962771321 -0.12563532974413827 0.0
-0.785655388779631 -0.11877276814871274 0.0
-0.7863956955735121 -0.11541990837832918 0.0
-0.787626407208851 -0.10978457863419086 0.0
-0.7902484671321826 -0.0977414312261844 0.0
-0.7921221103218178 -0.08769800358919498 0.0
-0.7946189387878253 -0.07230199641080498 0.0
0.647832972442329 -0.1972797208546223 0.0
0.6518595160745091 -0.18984778001868044 0.0
0.6548389912596149 -0.1842124502745421 0.0
0.6589525252130345 -0.17624838393209394 0.0
0.6629212365631798 -0.16769800358919495 0.0
0.6696504236589322 -0.15230199641080497 0.0
0.6737800954767892 -0.14199101872944417 0.0
0.678333381606007 -0.12921691100664773 0.0
0.6803320498105156 -0.12358158126250941 0.0
0.6812392267634877 -0.12095968180691583 0.0
0.6831301296906769 -0.11436467025586167 0.0
0.6873889956069665 -0.09896866307747164 0.0
0.6900998249205025 -0.087698003589195 0.0
0.6932470824194406 -0.07230199641080498 0.0
-0.7961379642244593 -0.06103133692252834 0.0
-0.7977911904293256 -0.045635329744138316 0.0
-0.7986976098451418 -0.034364670255861665 0.0
-0.7995207675372529 -0.018968663077471654 0.0
-0.7998220641638858 -0.007698003589195009 0.0
-0.7998220641638859 0.007698003589195011 0.0
-0.7995207675372529 0.018968663077471654 0.0
-0.7986976098451418 0.03436467025586168 0.0
-0.7977911904293254 0.04563532974413831 0.0
-0.7961379642244593 0.06103133692252834 0.0
0.6951585405380285 -0.06103133692252833 0.0
0.6972334837356129 -0.045635329744138316 0.0
0.698370086406058 -0.034364670255861665 0.0
0.699400399452148 -0.018968663077471654 0.0
0.6997775202008675 -0.007698003589195007 0.0
0.6997775202008676 0.007698003589195005 0.0
0.6994003994521482 0.018968663077471658 0.0
0.6983700864060579 0.03436467025586168 0.0
0.6972334837356129 0.04563532974413831 0.0
0.6951585405380285 0.06103133692252832 0.0
-0.7946189387878252 0.07230199641080498 0.0
-0.7921221103218178 0.08769800358919498 0.0
-0.7902484671321826 0.09774143122618438 0.0
-0.7876264072088511 0.1097845786341908 0.0
-0.7863956955735122 0.11541990837832916 0.0
-0.7856553887796309 0.11877276814871272 0.0
-0.7838219627713211 0.1256353297441383 0.0
-0.7795532565585811 0.1410313369225283 0.0
-0.7760853626391078 0.15230199641080497 0.0
-0.7708796064685874 0.16769800358919498 0.0
-0.7670777027327592 0.17807060466322985 0.0
-0.7618964647315103 0.1910130706257466 0.0
-0.7596301006260778 0.19664840036988496 0.0
-0.758619516742834 0.1991019415857582 0.0
0.6932470824194407 0.07230199641080498 0.0
0.6900998249205025 0.08769800358919498 0.0
0.6873889956069664 0.09896866307747162 0.0
0.6831301296906768 0.11436467025586167 0.0
0.6812392267634877 0.1209596818069158 0.0
0.6803320498105154 0.12358158126250927 0.0
0.678333381606007 0.1292169110066476 0.0
0.6737800954767892 0.14199101872944414 0.0
0.6696504236589323 0.15230199641080497 0.0
0.6629212365631798 0.167698003589195 0.0
0.6589525252130345 0.17624838393209397 0.0
0.6548389912596149 0.18421245027454206 0.0
0.6518595160745089 0.18984778001868036 0.0
0.6478329724423288 0.19727972085462225 0.0
-0.7555827592620584 0.2056353297441383 0.0
-0.7482967674175584 0.22103133692252833 0.0
-0.7430313370473424 0.23145046493258173 0.0
-0.7359319055966962 0.24452004484822173 0.0
-0.6741569712703075 0.3315347523561011 0.0
-0.678434365170527 0.32662093774477585 0.0
-0.6831335279062176 0.3209856080006375 0.0
-0.6916944853529388 0.31050341543357274 0.0
-0.697329815097077 0.30329371602414773 0.0
-0.7041648648287459 0.2940786434973641 0.0
-0.7082571203550465 0.28844331375322585 0.0
-0.7126023206387855 0.2822623791016194 0.0
-0.7177559297569251 0.2743646702558616 0.0
-0.7274906514262935 0.2589686630774716 0.0
-0.7315355274820522 0.2524818018551101 0.0
-0.7328516127073347 0.2501553745923601 0.0
0.5969371073410822 0.2676909572874916 0.0
0.5885691289787891 0.27670180194558314 0.0
0.5829337992346507 0.28251533044346766 0.0
0.5759057704185538 0.2893873410128462 0.0
0.569803393653711 0.2950226707569846 0.0
0.5601594191013287 0.30354666736599595 0.0
0.5545240893571904 0.30838554038309895 0.0
0.5487720567311825 0.3130815907081868 0.0
0.5412567891357776 0.3187169204523251 0.0
0.5264767288586631 0.3294168773056273 0.0
0.6428062972146926 0.20563532974413828 0.0
0.6330997087318229 0.22103133692252833 0.0
0.6289381962465089 0.22752217464293123 0.0
0.627275321183169 0.22985946590036666 0.0
0.6230278690576894 0.23549479564450493 0.0
0.6130864891115033 0.2485535115654596 0.0
0.607451159367365 0.2556704650230548 0.0
0.6019965321351611 0.26205562754335326 0.0
-0.6685216415261692 0.3376332317170319 0.0
-0.6574030282479989 0.3493807725686798 0.0
-0.6519712139601828 0.3550161023128181 0.0
-0.6482498346267611 0.35866456863956026 0.0
-0.6426145048826227 0.36389858499254363 0.0
-0.6309398770376543 0.3745497172697989 0.0
-0.6245905131238224 0.38018504701393724 0.0
-0.6189183561604574 0.38492992191507197 0.0
-0.6132830264163193 0.38946741677103847 0.0
-0.6035591762012941 0.39711920835548636 0.0
-0.48208889251504894 0.4654882067780476 0.0
-0.4903203944967345 0.4622685944876586 0.0
-0.4989686630774717 0.45852783008465775 0.0
-0.5143646702558617 0.4515274839669031 0.0
-0.5236388723237757 0.44707061411138366 0.0
-0.5335804563945872 0.44189456534113725 0.0
-0.5392157861387256 0.4389197965274235 0.0
-0.544670209246304 0.43596862575783224 0.0
-0.5523019964108049 0.4314538331492203 0.0
-0.5676980035891951 0.4220703611264473 0.0
-0.5749891659424633 0.4175152348548854 0.0
-0.5795129847594357 0.4144538704688596 0.0
-0.5851483145035741 0.4104987536935668 0.0
-0.5960205028649915 0.40275453809962464 0.0
-0.07230199641080498 0.44496231269720804 0.0
-0.087698003589195 0.4524985323147044 0.0
-0.09896866307747164 0.4576277137393634 0.0
-0.11436467025586167 0.4641046783752738 0.0
-0.12011171626634198 0.4665158288441593 0.0
-0.12041693078202019 0.46662624979393763 0.0
0.06248673162247907 0.3440946200651433 0.0
0.05106693670942097 0.3557381662911449 0.0
0.04543160696528263 0.3613788425525991 0.0
0.04145539469995074 0.36514591046193806 0.0
0.035123370330861256 0.3707812402060764 0.0
0.021800170305076416 0.38241017947512745 0.0
0.016164840560938087 0.38728858726566817 0.0
0.01409203340833291 0.3889877059404145 0.0
0.007698003589195014 0.3938395489731711 0.0
-0.007698003589195014 0.40539591197426506 0.0
-0.0144880143648037 0.4104093211194017 0.0
-0.01764266160931676 0.41254984662195154 0.0
-0.02327799135345509 0.41622709903631894 0.0
-0.03551935128733204 0.42413301396207614 0.0
-0.04478834810226892 0.4297683437062144 0.0
-0.05787035840199365 0.4372584359588473 0.0
-0.06350568814613197 0.44046573144675033 0.0
-0.06581968502479726 0.44173813342195517 0.0
0.19954027544503974 0.3871638634405576 0.0
0.1982842846034016 0.38679989014071003 0.0
0.19264895485926328 0.38513009858397645 0.0
0.17850893852251146 0.3809321165127782 0.0
0.16769800358919498 0.3772858336794255 0.0
0.15230199641080497 0.3715219857911378 0.0
0.14228553074619973 0.3674232241296897 0.0
0.13031604481661913 0.3619890469107855 0.0
0.12468071507248078 0.3594064913056637 0.0
0.12125419382367139 0.35778499539800346 0.0
0.11436467025586164 0.3540685239703857 0.0
0.09896866307747165 0.34553643111291626 0.0
0.08769800358919498 0.34186810609839746 0.0
0.07230199641080498 0.3403781486375256 0.0
0.32769800358919493 0.3988897543897183 0.0
0.3123019964108049 0.39966179303985805 0.0
0.30103133692252826 0.3998502871662263 0.0
0.2856353297441383 0.39959322404625286 0.0
0.27436467025586164 0.3990271250800894 0.0
0.2589686630774716 0.3977375770623922 0.0
0.247698003589195 0.3964095561107013 0.0
0.23230199641080493 0.3940708834148625 0.0
0.22103133692252827 0.3919642951259181 0.0
0.20563532974413828 0.38854766158573145 0.0
0.4610313369225283 0.36594328147227073 0.0
0.4456353297441383 0.3723323398725366 0.0
0.4343646702558616 0.37655797204554803 0.0
0.4189686630774716 0.38171355543604707 0.0
0.4108559883801181 0.3842485597293618 0.0
0.4040877561000601 0.3860187368656037 0.0
0.39845242635592176 0.3874753155417151 0.0
0.3898246514575898 0.3896845853538311 0.0
0.38103133692252833 0.3915449525918845 0.0
0.36563532974413826 0.3944183005948667 0.0
0.3543646702558616 0.39613297669031466 0.0
0.3389686630774716 0.39794421089862037 0.0
0.5208413991145247 0.3334864268428343 0.0
0.520225452213249 0.3339046860891001 0.0
0.5143646702558617 0.33745177160063033 0.0
0.49896866307747156 0.3467243301906566 0.0
0.48925395539957145 0.35220656642529385 0.0
0.478108887621259 0.3579117557673918 0.0
0.4724735578771207 0.3607617677700639 0.0
0.46822261847704316 0.36284295602144706 0.0
-0.47645356277091067 0.46766539084956243 0.0
-0.46928905757420614 0.4703939560599815 0.0
-0.33896866307747175 0.4983585782171029 0.0
-0.3543646702558617 0.4969145075537568 0.0
-0.3643584520401168 0.4957408491005275 0.0
-0.3762659644560681 0.49397842523891816 0.0
-0.38190129420020646 0.49314261879345894 0.0
-0.3853897889626452 0.49262157698078024 0.0
-0.39230199641080504 0.49127878934533986 0.0
-0.40769800358919506 0.48813126711422017 0.0
-0.4189686630774717 0.48550124660330374 0.0
-0.4343646702558617 0.48146341917365143 0.0
-0.4456353297441384 0.4781696012478493 0.0
-0.46103133692252835 0.4732085507533291 0.0
-0.20411301162617898 0.4906212543799319 0.0
-0.21534996836102163 0.49260663396795995 0.0
-0.22098529810515996 0.49359938903912226 0.0
-0.22514434854870732 0.49432626674498115 0.0
-0.23230199641080496 0.49527369624889866 0.0
-0.24769800358919497 0.4971352440843321 0.0
-0.25896866307747163 0.4981934149385796 0.0
-0.2743646702558617 0.49922284364003894 0.0
-0.28563532974413836 0.4996748490790286 0.0
-0.30103133692252837 0.49988032220218626 0.0
-0.312301996410805 0.4997297540953791 0.0
-0.32769800358919504 0.4991129212544251 0.0
-0.12605226052615853 0.4686163831212374 0.0
-0.1411430531888703 0.47394310753547775 0.0
-0.15230199641080497 0.4775381230409877 0.0
-0.16769800358919495 0.4820331636417978 0.0
-0.17896866307747164 0.48499207756599216 0.0
-0.19436467025586163 0.48858094014130343 0.0


POINT_DATA 392
SCALARS element_ids double 1
LOOKUP_TABLE default
48
48
49
49
49
49
49
49
49
49
49
49
49
49
50
50
50
50
50
50
50
50
50
50
50
50
51
51
51
51
51
51
62
62
62
62
62
62
62
62
62
62
63
63
63
63
63
63
63
63
63
63
63
63
63
63
66
66
66
66
66
66
67
67
67
67
67
67
67
67
67
67
67
67
67
67
67
67
67
67
68
68
68
68
68
68
68
68
68
68
68
68
68
68
69
69
69
69
69
69
69
69
69
69
70
70
70
70
70
70
70
70
70
70
70
70
71
71
71
71
71
71
71
71
76
76
76
76
77
77
77
77
77
77
77
77
77
77
77
77
86
86
86
86
86
86
86
86
86
86
87
87
87
87
87
87
87
87
91
91
91
91
91
91
91
91
91
91
91
91
91
91
102
102
102
102
102
102
102
102
102
102
102
102
102
102
106
106
106
106
106
106
106
106
106
106
117
117
117
117
117
117
117
117
117
117
121
121
121
121
121
121
121
121
121
121
121
121
121
121
132
132
132
132
132
132
132
132
132
132
132
132
132
132
136
136
136
136
137
137
137
137
137
137
137
137
137
137
137
137
146
146
146
146
146
146
146
146
146
146
147
147
147
147
147
147
147
147
152
152
152
152
152
152
152
152
152
152
153
153
153
153
153
153
153
153
153
153
153
153
153
153
156
156
156
156
156
156
157
157
157
157
157
157
157
157
157
157
157
157
157
157
157
157
157
157
158
158
158
158
158
158
158
158
158
158
158
158
158
158
159
159
159
159
159
159
159
159
159
159
160
160
160
160
160
160
160
160
160
160
160
160
161
161
161
161
161
161
161
161
168
168
169
169
169
169
169
169
169
169
169
169
169
169
170
170
170
170
170
170
170
170
170
170
170
170
171
171
171
171
171
171

