# vtk DataFile Version 4.1
Header:
ASCII

DATASET UNSTRUCTURED_GRID
POINTS 112 double
-0.30000000000000004 -0.40000000000000013 0.0
-0.30000000000000016 -0.4 0.0
-0.29999999999999977 -0.40000000000000024 0.0
-0.29999999999999993 -0.4000000000000002 0.0
-0.22113248654051867 -0.44559694315957377 0.0
-0.2788675134594811 -0.41221766409693583 0.0
-0.133590019863861 -0.4786276442330746 0.0
-0.18220549945315467 -0.46339144370641894 0.0
-0.10333798599367336 -0.48865985017071023 0.0
-0.11245753332334231 -0.4853982933392028 0.0
-0.02113248654051872 -0.49785582666254513 0.0
-0.07886751345948127 -0.49199783616438364 0.0
-0.4 -0.30000000000000016 0.0
-0.40000000000000013 -0.30000000000000004 0.0
-0.32113248654051885 -0.37886751345948133 0.0
-0.37886751345948133 -0.32113248654051885 0.0
-0.4000000000000002 -0.29999999999999993 0.0
-0.40000000000000024 -0.29999999999999977 0.0
-0.41221766409693583 -0.2788675134594811 0.0
-0.44559694315957377 -0.22113248654051867 0.0
-0.46339144370641894 -0.18220549945315467 0.0
-0.4786276442330746 -0.133590019863861 0.0
-0.4853982933392028 -0.11245753332334231 0.0
-0.48865985017071023 -0.10333798599367336 0.0
-0.49199783616438364 -0.07886751345948127 0.0
-0.49785582666254513 -0.02113248654051872 0.0
0.07176170439563617 -0.4928941909361549 0.0
0.01922849074029165 -0.49809600419977296 0.0
0.09809600419977292 -0.4900938403641566 0.0
0.09289419093615489 -0.49075001759869996 0.0
0.15479812665442708 -0.4737864398574909 0.0
0.11468311378379212 -0.48554846340765706 0.0
0.1935506272432734 -0.4602800569433657 0.0
0.1759306131949458 -0.4670157907513627 0.0
0.23063794253000425 -0.4428556066269398 0.0
0.20820941195866577 -0.4538063551182393 0.0
0.28707692541814706 -0.40820941195866584 0.0
0.251770429070523 -0.4306379425300043 0.0
0.30000000000000004 -0.4 0.0
0.3 -0.4000000000000001 0.0
0.3000000000000001 -0.4 0.0
0.30000000000000004 -0.4 0.0
0.3422362275341588 -0.36336871407467747 0.0
0.31131716305911505 -0.3901846765185963 0.0
0.39018467651859634 -0.311317163059115 0.0
0.3633687140746774 -0.3422362275341587 0.0
0.43063794253000426 -0.25177042907052294 0.0
0.4082094119586658 -0.287076925418147 0.0
0.4538063551182394 -0.2082094119586658 0.0
0.4428556066269398 -0.23063794253000422 0.0
0.4670157907513627 -0.1759306131949458 0.0
0.46028005694336577 -0.19355062724327343 0.0
0.48554846340765706 -0.11468311378379212 0.0
0.4737864398574909 -0.1547981266544271 0.0
0.49075001759869985 -0.09289419093615489 0.0
0.4900938403641566 -0.09809600419977293 0.0
0.49809600419977296 -0.01922849074029165 0.0
0.49289419093615483 -0.07176170439563616 0.0
-0.49809600419977296 0.01922849074029165 0.0
-0.4928941909361549 0.07176170439563617 0.0
-0.49075001759869996 0.09289419093615489 0.0
-0.4900938403641566 0.09809600419977292 0.0
-0.48554846340765706 0.11468311378379212 0.0
-0.4737864398574909 0.15479812665442708 0.0
-0.4670157907513627 0.1759306131949458 0.0
-0.4602800569433657 0.1935506272432734 0.0
-0.4538063551182393 0.20820941195866577 0.0
-0.4428556066269398 0.23063794253000425 0.0
-0.4306379425300043 0.251770429070523 0.0
-0.40820941195866584 0.28707692541814706 0.0
-0.4000000000000001 0.3 0.0
-0.4 0.30000000000000004 0.0
-0.4 0.30000000000000004 0.0
-0.4 0.3000000000000001 0.0
-0.3901846765185963 0.31131716305911505 0.0
-0.36336871407467747 0.3422362275341588 0.0
-0.3422362275341587 0.3633687140746774 0.0
-0.311317163059115 0.39018467651859634 0.0
-0.287076925418147 0.4082094119586658 0.0
-0.25177042907052294 0.43063794253000426 0.0
-0.23063794253000422 0.4428556066269398 0.0
-0.2082094119586658 0.4538063551182394 0.0
-0.19355062724327343 0.46028005694336577 0.0
-0.1759306131949458 0.4670157907513627 0.0
-0.1547981266544271 0.4737864398574909 0.0
-0.11468311378379212 0.48554846340765706 0.0
-0.09809600419977293 0.4900938403641566 0.0
-0.09289419093615489 0.49075001759869985 0.0
-0.07176170439563616 0.49289419093615483 0.0
-0.01922849074029165 0.49809600419977296 0.0
0.49199783616438364 0.07886751345948129 0.0
0.49785582666254513 0.02113248654051872 0.0
0.4853982933392027 0.11245753332334238 0.0
0.48865985017071023 0.10333798599367337 0.0
0.4633914437064188 0.18220549945315467 0.0
0.47862764423307447 0.1335900198638611 0.0
0.3999999999999999 0.29999999999999993 0.0
0.39999999999999997 0.2999999999999998 0.0
0.4122176640969356 0.27886751345948113 0.0
0.44559694315957354 0.22113248654051867 0.0
0.2999999999999998 0.39999999999999997 0.0
0.29999999999999993 0.3999999999999999 0.0
0.3211324865405187 0.37886751345948116 0.0
0.37886751345948116 0.3211324865405187 0.0
0.02113248654051872 0.49785582666254513 0.0
0.07886751345948129 0.49199783616438364 0.0
0.10333798599367337 0.48865985017071023 0.0
0.11245753332334238 0.4853982933392027 0.0
0.1335900198638611 0.47862764423307447 0.0
0.18220549945315467 0.4633914437064188 0.0
0.22113248654051867 0.44559694315957354 0.0
0.27886751345948113 0.4122176640969356 0.0


POINT_DATA 112
SCALARS element_ids double 1
LOOKUP_TABLE default
5
5
5
5
5
5
5
5
5
5
5
5
5
5
5
5
5
5
5
5
5
5
5
5
5
5
6
6
6
6
6
6
6
6
6
6
6
6
6
6
6
6
6
6
6
6
6
6
6
6
6
6
6
6
6
6
6
6
9
9
9
9
9
9
9
9
9
9
9
9
9
9
9
9
9
9
9
9
9
9
9
9
9
9
9
9
9
9
9
9
10
10
10
10
10
10
10
10
10
10
10
10
10
10
10
10
10
10
10
10
10
10

