# vtk DataFile Version 4.1
Header:
ASCII

DATASET UNSTRUCTURED_GRID
POINTS 60 double
-0.30000000000000016 -0.4 0
-0.3 -0.40000000000000013 0
-0.2999999999999997 -0.40000000000000024 0
-0.2 -0.45781460725650924 0
-0.11579551931701565 -0.4842044806829844 0
-0.09999999999999998 -0.48985366282692877 0
0 -0.5 0
-0.40000000000000013 -0.3 0
-0.4 -0.30000000000000016 0
-0.40000000000000024 -0.2999999999999997 0
-0.45781460725650924 -0.2 0
-0.4842044806829844 -0.11579551931701565 0
-0.48985366282692877 -0.09999999999999998 0
-0.5 0 0
0 -0.5 0
0.09099019513592782 -0.4909901951359278 0
0.1 -0.48985366282692877 0
0.1694812404382192 -0.4694812404382192 0
0.2 -0.45781460725650913 0
0.23884735448867006 -0.43884735448867 0
0.3 -0.4000000000000001 0
0.30000000000000004 -0.4 0
0.30000000000000016 -0.4 0
0.35355339059327373 -0.35355339059327373 0
0.4 -0.3 0
0.43884735448867007 -0.23884735448867 0
0.4578146072565092 -0.2 0
0.46948124043821926 -0.16948124043821922 0
0.48985366282692866 -0.09999999999999998 0
0.4909901951359278 -0.09099019513592782 0
0.5 0 0
-0.5 0 0
-0.4909901951359278 0.09099019513592782 0
-0.48985366282692877 0.1 0
-0.4694812404382192 0.1694812404382192 0
-0.45781460725650913 0.2 0
-0.43884735448867 0.23884735448867006 0
-0.4000000000000001 0.3 0
-0.4 0.30000000000000004 0
-0.4 0.30000000000000016 0
-0.35355339059327373 0.35355339059327373 0
-0.3 0.4 0
-0.23884735448867 0.43884735448867007 0
-0.2 0.4578146072565092 0
-0.16948124043821922 0.46948124043821926 0
-0.09999999999999998 0.48985366282692866 0
-0.09099019513592782 0.4909901951359278 0
0 0.5 0
0.5 0 0
0.4898536628269287 0.1 0
0.4842044806829843 0.11579551931701576 0
0.457814607256509 0.2 0
0.39999999999999986 0.3 0
0.4 0.29999999999999977 0
0.29999999999999977 0.4 0
0.3 0.39999999999999986 0
0 0.5 0
0.1 0.4898536628269287 0
0.11579551931701576 0.4842044806829843 0
0.2 0.457814607256509 0

CELLS 56 168
2 1 0
2 2 1
2 3 2
2 4 3
2 5 4
2 6 5
2 8 7
2 0 8
2 7 9
2 9 10
2 10 11
2 11 12
2 12 13
2 15 14
2 16 15
2 17 16
2 18 17
2 19 18
2 20 19
2 21 20
2 22 21
2 23 22
2 24 23
2 25 24
2 26 25
2 27 26
2 28 27
2 29 28
2 30 29
2 31 32
2 32 33
2 33 34
2 34 35
2 35 36
2 36 37
2 37 38
2 38 39
2 39 40
2 40 41
2 41 42
2 42 43
2 43 44
2 44 45
2 45 46
2 46 47
2 49 48
2 50 49
2 51 50
2 52 53
2 53 51
2 54 55
2 55 52
2 56 57
2 57 58
2 58 59
2 59 54

CELL_TYPES 56
3
3
3
3
3
3
3
3
3
3
3
3
3
3
3
3
3
3
3
3
3
3
3
3
3
3
3
3
3
3
3
3
3
3
3
3
3
3
3
3
3
3
3
3
3
3
3
3
3
3
3
3
3
3
3
3


POINT_DATA 60
SCALARS elementID double 1
LOOKUP_TABLE default
5
5
5
5
5
5
5
5
5
5
5
5
5
5
6
6
6
6
6
6
6
6
6
6
6
6
6
6
6
6
6
9
9
9
9
9
9
9
9
9
9
9
9
9
9
9
9
9
10
10
10
10
10
10
10
10
10
10
10
10

SCALARS lsm_geometryID double 1
LOOKUP_TABLE default
0
0
0
0
0
0
0
0
0
0
0
0
0
0
0
0
0
0
0
0
0
0
0
0
0
0
0
0
0
0
0
0
0
0
0
0
0
0
0
0
0
0
0
0
0
0
0
0
0
0
0
0
0
0
0
0
0
0
0
0

