# vtk DataFile Version 4.1
Header:
ASCII

DATASET UNSTRUCTURED_GRID
POINTS 288 double
-1 -1 0
-0.5 -1 0
-0.5 -0.5 0
-1 -0.5 0
-0.5 -1 0
0 -1 0
0 -0.5 0
-0.5 -0.5 0
0 -1 0
0.5 -1 0
0.5 -0.5 0
0 -0.5 0
0.5 -1 0
1 -1 0
1 -0.5 0
0.5 -0.5 0
-1 -0.5 0
-0.5 -0.5 0
-0.5 0 0
-1 0 0
-0.5 0 0
-0.49 0 0
-0.47960685711669493 -0.09999999999999998 0
0 -0.49 0
0 -0.5 0
-0.09999999999999998 -0.47960685711669493 0
-0.5 -0.5 0
-0.38679622758982973 -0.3 0
-0.3 -0.38679622758982973 0
0 0 0
-0.3 -0.38679622758982973 0
-0.38679622758982973 -0.3 0
-0.5 -0.5 0
-0.47960685711669493 -0.09999999999999998 0
-0.44686205085413805 -0.2 0
-0.5 -0.5 0
-0.5 0 0
-0.47960685711669493 -0.09999999999999998 0
0 0 0
-0.44686205085413805 -0.2 0
-0.47960685711669493 -0.09999999999999998 0
-0.5 -0.5 0
-0.09999999999999998 -0.47960685711669493 0
0 -0.5 0
-0.5 -0.5 0
-0.2 -0.44686205085413805 0
-0.09999999999999998 -0.47960685711669493 0
0 0 0
-0.09999999999999998 -0.47960685711669493 0
-0.2 -0.44686205085413805 0
-0.5 -0.5 0
-0.281055728090001 -0.4 0
-0.2 -0.44686205085413805 0
-0.5 -0.5 0
-0.3 -0.38679622758982973 0
-0.281055728090001 -0.4 0
0 0 0
-0.2 -0.44686205085413805 0
-0.281055728090001 -0.4 0
0 0 0
-0.281055728090001 -0.4 0
-0.3 -0.38679622758982973 0
-0.5 -0.5 0
-0.4 -0.281055728090001 0
-0.38679622758982973 -0.3 0
-0.5 -0.5 0
-0.44686205085413805 -0.2 0
-0.4 -0.281055728090001 0
0 0 0
-0.38679622758982973 -0.3 0
-0.4 -0.281055728090001 0
0 0 0
-0.4 -0.281055728090001 0
-0.44686205085413805 -0.2 0
0 0 0
-0.47960685711669493 -0.09999999999999998 0
-0.49 0 0
0 0 0
0 -0.49 0
-0.09999999999999998 -0.47960685711669493 0
0.48999999999999994 0 0
0.4796068571166948 -0.09999999999999998 0
0 0 0
0.4796068571166948 -0.09999999999999998 0
0.48999999999999994 0 0
0.5 0 0
0.3 -0.3867962275898297 0
0.38679622758982957 -0.3 0
0.5 -0.5 0
0.38679622758982957 -0.3 0
0.3 -0.3867962275898297 0
0 0 0
0.1 -0.479606857116695 0
0.2 -0.44686205085413794 0
0.5 -0.5 0
0 -0.5 0
0.1 -0.479606857116695 0
0.5 -0.5 0
0.2 -0.44686205085413794 0
0.1 -0.479606857116695 0
0 0 0
0.5 0 0
0.5 -0.5 0
0.4796068571166948 -0.09999999999999998 0
0.44686205085413794 -0.2 0
0.4796068571166948 -0.09999999999999998 0
0.5 -0.5 0
0.4796068571166948 -0.09999999999999998 0
0.44686205085413794 -0.2 0
0 0 0
0.4 -0.2810557280900008 0
0.44686205085413794 -0.2 0
0.5 -0.5 0
0.38679622758982957 -0.3 0
0.4 -0.2810557280900008 0
0.5 -0.5 0
0.44686205085413794 -0.2 0
0.4 -0.2810557280900008 0
0 0 0
0.4 -0.2810557280900008 0
0.38679622758982957 -0.3 0
0 0 0
0.2810557280900009 -0.4 0
0.3 -0.3867962275898297 0
0.5 -0.5 0
0.2 -0.44686205085413794 0
0.2810557280900009 -0.4 0
0.5 -0.5 0
0.3 -0.3867962275898297 0
0.2810557280900009 -0.4 0
0 0 0
0.2810557280900009 -0.4 0
0.2 -0.44686205085413794 0
0 0 0
0 -0.49 0
0 0 0
0.1 -0.479606857116695 0
0 -0.5 0
0 -0.49 0
0.1 -0.479606857116695 0
0.5 -0.5 0
1 -0.5 0
1 0 0
0.5 0 0
-1 0 0
-0.5 0 0
-0.5 0.5 0
-1 0.5 0
-0.2810557280900008 0.4 0
-0.2 0.44686205085413794 0
0 0 0
-0.3 0.38679622758982957 0
-0.2810557280900008 0.4 0
0 0 0
0 0.5 0
-0.09999999999999998 0.4796068571166948 0
-0.5 0.5 0
-0.3 0.38679622758982957 0
-0.3867962275898297 0.3 0
-0.5 0.5 0
-0.3867962275898297 0.3 0
-0.3 0.38679622758982957 0
0 0 0
-0.44686205085413794 0.2 0
-0.479606857116695 0.1 0
-0.5 0.5 0
-0.5 0 0
-0.5 0.5 0
-0.479606857116695 0.1 0
-0.479606857116695 0.1 0
-0.44686205085413794 0.2 0
0 0 0
-0.2 0.44686205085413794 0
-0.2810557280900008 0.4 0
-0.5 0.5 0
0 0.5 0
0 0.48999999999999994 0
-0.09999999999999998 0.4796068571166948 0
0 0.48999999999999994 0
0 0 0
-0.09999999999999998 0.4796068571166948 0
-0.2 0.44686205085413794 0
-0.09999999999999998 0.4796068571166948 0
0 0 0
-0.09999999999999998 0.4796068571166948 0
-0.2 0.44686205085413794 0
-0.5 0.5 0
-0.3867962275898297 0.3 0
-0.4 0.2810557280900009 0
-0.5 0.5 0
-0.4 0.2810557280900009 0
-0.44686205085413794 0.2 0
-0.5 0.5 0
-0.4 0.2810557280900009 0
-0.3867962275898297 0.3 0
0 0 0
-0.44686205085413794 0.2 0
-0.4 0.2810557280900009 0
0 0 0
-0.49 0 0
-0.479606857116695 0.1 0
0 0 0
-0.2810557280900008 0.4 0
-0.3 0.38679622758982957 0
-0.5 0.5 0
-0.479606857116695 0.1 0
-0.49 0 0
-0.5 0 0
0.5 0.5 0
0.28105572809000057 0.4 0
0.2 0.44686205085413777 0
0 0.48999999999999994 0
0 0.5 0
0.1 0.4796068571166948 0
0.5 0.5 0
0.5 0 0
0.4796068571166948 0.1 0
0.5 0.5 0
0.4796068571166948 0.1 0
0.44686205085413777 0.2 0
0 0 0
0.44686205085413777 0.2 0
0.4796068571166948 0.1 0
0 0 0
0.3 0.38679622758982946 0
0.38679622758982946 0.3 0
0.5 0.5 0
0.38679622758982946 0.3 0
0.3 0.38679622758982946 0
0 0 0
0.1 0.4796068571166948 0
0.2 0.44686205085413777 0
0.5 0.5 0
0.2 0.44686205085413777 0
0.1 0.4796068571166948 0
0.5 0.5 0
0.1 0.4796068571166948 0
0 0.5 0
0.5 0 0
0.48999999999999994 0 0
0.4796068571166948 0.1 0
0 0 0
0 0.48999999999999994 0
0.1 0.4796068571166948 0
0 0 0
0.4796068571166948 0.1 0
0.48999999999999994 0 0
0.5 0.5 0
0.44686205085413777 0.2 0
0.4 0.28105572809000057 0
0.5 0.5 0
0.4 0.28105572809000057 0
0.38679622758982946 0.3 0
0 0 0
0.4 0.28105572809000057 0
0.44686205085413777 0.2 0
0 0 0
0.38679622758982946 0.3 0
0.4 0.28105572809000057 0
0 0 0
0.28105572809000057 0.4 0
0.3 0.38679622758982946 0
0 0 0
0.2 0.44686205085413777 0
0.28105572809000057 0.4 0
0.5 0.5 0
0.3 0.38679622758982946 0
0.28105572809000057 0.4 0
0.5 0 0
1 0 0
1 0.5 0
0.5 0.5 0
-1 0.5 0
-0.5 0.5 0
-0.5 1 0
-1 1 0
-0.5 0.5 0
0 0.5 0
0 1 0
-0.5 1 0
0 0.5 0
0.5 0.5 0
0.5 1 0
0 1 0
0.5 0.5 0
1 0.5 0
1 1 0
0.5 1 0

CELLS 92 380
4 0 1 2 3
4 4 5 6 7
4 8 9 10 11
4 12 13 14 15
4 16 17 18 19
3 20 21 22
3 23 24 25
3 26 27 28
3 29 30 31
3 32 33 34
3 35 36 37
3 38 39 40
3 41 42 43
3 44 45 46
3 47 48 49
3 50 51 52
3 53 54 55
3 56 57 58
3 59 60 61
3 62 63 64
3 65 66 67
3 68 69 70
3 71 72 73
3 74 75 76
3 77 78 79
3 80 81 82
3 83 84 85
3 86 87 88
3 89 90 91
3 92 93 94
3 95 96 97
3 98 99 100
3 101 102 103
3 104 105 106
3 107 108 109
3 110 111 112
3 113 114 115
3 116 117 118
3 119 120 121
3 122 123 124
3 125 126 127
3 128 129 130
3 131 132 133
3 134 135 136
3 137 138 139
4 140 141 142 143
4 144 145 146 147
3 148 149 150
3 151 152 153
3 154 155 156
3 157 158 159
3 160 161 162
3 163 164 165
3 166 167 168
3 169 170 171
3 172 173 174
3 175 176 177
3 178 179 180
3 181 182 183
3 184 185 186
3 187 188 189
3 190 191 192
3 193 194 195
3 196 197 198
3 199 200 201
3 202 203 204
3 205 206 207
3 208 209 210
3 211 212 213
3 214 215 216
3 217 218 219
3 220 221 222
3 223 224 225
3 226 227 228
3 229 230 231
3 232 233 234
3 235 236 237
3 238 239 240
3 241 242 243
3 244 245 246
3 247 248 249
3 250 251 252
3 253 254 255
3 256 257 258
3 259 260 261
3 262 263 264
3 265 266 267
4 268 269 270 271
4 272 273 274 275
4 276 277 278 279
4 280 281 282 283
4 284 285 286 287

CELL_TYPES 92
9
9
9
9
9
5
5
5
5
5
5
5
5
5
5
5
5
5
5
5
5
5
5
5
5
5
5
5
5
5
5
5
5
5
5
5
5
5
5
5
5
5
5
5
5
9
9
5
5
5
5
5
5
5
5
5
5
5
5
5
5
5
5
5
5
5
5
5
5
5
5
5
5
5
5
5
5
5
5
5
5
5
5
5
5
5
5
9
9
9
9
9


POINT_DATA 288
SCALARS phase double 1
LOOKUP_TABLE default
0
0
0
0
0
0
0
0
0
0
0
0
0
0
0
0
0
0
0
0
0
0
0
0
0
0
0
0
0
1
1
1
0
0
0
0
0
0
1
1
1
0
0
0
0
0
0
1
1
1
0
0
0
0
0
0
1
1
1
1
1
1
0
0
0
0
0
0
1
1
1
1
1
1
1
1
1
1
1
1
1
1
1
0
0
0
0
0
0
1
1
1
0
0
0
0
0
0
1
1
1
0
0
0
0
0
0
1
1
1
0
0
0
0
0
0
1
1
1
1
1
1
0
0
0
0
0
0
1
1
1
1
1
1
1
1
1
0
0
0
0
0
0
0
0
0
0
0
1
1
1
1
1
1
0
0
0
0
0
0
1
1
1
0
0
0
0
0
0
1
1
1
0
0
0
0
0
0
1
1
1
1
1
1
0
0
0
0
0
0
0
0
0
1
1
1
1
1
1
1
1
1
0
0
0
0
0
0
0
0
0
0
0
0
0
0
0
0
0
0
1
1
1
1
1
1
0
0
0
1
1
1
0
0
0
0
0
0
0
0
0
1
1
1
1
1
1
0
0
0
0
0
0
1
1
1
1
1
1
1
1
1
1
1
1
0
0
0
0
0
0
0
0
0
0
0
0
0
0
0
0
0
0
0
0
0
0
0

