# vtk DataFile Version 4.1
Header:
ASCII

DATASET UNSTRUCTURED_GRID
POINTS 288 double
-0.8943375672974065 -0.8943375672974064 0.0
-0.6056624327025937 -0.8943375672974064 0.0
-0.8943375672974065 -0.6056624327025937 0.0
-0.6056624327025937 -0.6056624327025936 0.0
-0.39433756729740643 -0.8943375672974064 0.0
-0.10566243270259357 -0.8943375672974064 0.0
-0.39433756729740643 -0.6056624327025937 0.0
-0.10566243270259357 -0.6056624327025936 0.0
0.10566243270259357 -0.8943375672974064 0.0
0.39433756729740643 -0.8943375672974064 0.0
0.10566243270259357 -0.6056624327025937 0.0
0.39433756729740643 -0.6056624327025936 0.0
0.6056624327025937 -0.8943375672974064 0.0
0.8943375672974065 -0.8943375672974064 0.0
0.6056624327025937 -0.6056624327025937 0.0
0.8943375672974065 -0.6056624327025936 0.0
-0.8943375672974065 -0.39433756729740643 0.0
-0.6056624327025937 -0.39433756729740643 0.0
-0.8943375672974065 -0.10566243270259357 0.0
-0.6056624327025937 -0.10566243270259357 0.0
-0.48993447618611574 -0.016666666666667 0.0
-0.4847379047444632 -0.06666666666666698 0.0
-0.49493447618611575 -0.016666666666666996 0.0
-0.016666666666666996 -0.4949344761861158 0.0
-0.066666666666667 -0.4847379047444633 0.0
-0.016666666666667 -0.48993447618611585 0.0
-0.39119748505988544 -0.3477993712649706 0.0
-0.3477993712649706 -0.39119748505988544 0.0
-0.4477993712649706 -0.4477993712649706 0.0
-0.2644660379316406 -0.30786415172655546 0.0
-0.30786415172655535 -0.26446603793164053 0.0
-0.11446603793164056 -0.11446603793164056 0.0
-0.47754824655348604 -0.18333333333333102 0.0
-0.46117584342220763 -0.23333333333333103 0.0
-0.4877448179951386 -0.38333333333333103 0.0
-0.49660114285278245 -0.09999999999999704 0.0
-0.4864045714111299 -0.14999999999999702 0.0
-0.49660114285278245 -0.3499999999999971 0.0
-0.3778425100888776 -0.15000000000000102 0.0
-0.394214913220156 -0.10000000000000098 0.0
-0.15441148466180854 -0.05000000000000099 0.0
-0.14999999999999702 -0.4864045714111299 0.0
-0.09999999999999704 -0.49660114285278245 0.0
-0.3499999999999971 -0.49660114285278245 0.0
-0.233333333333331 -0.46117584342220763 0.0
-0.18333333333333102 -0.47754824655348604 0.0
-0.38333333333333103 -0.4877448179951386 0.0
-0.10000000000000098 -0.394214913220156 0.0
-0.15000000000000102 -0.3778425100888776 0.0
-0.05000000000000099 -0.15441148466180854 0.0
-0.3040371520599989 -0.42447700847568914 0.0
-0.26350928801499846 -0.4479080339027582 0.0
-0.4135092880149984 -0.4744770084756892 0.0
-0.33017595468166544 -0.40786415172655244 0.0
-0.320703818726666 -0.4144660379316376 0.0
-0.4301759546816655 -0.4644660379316376 0.0
-0.18017595468166842 -0.36457470056942815 0.0
-0.22070381872666892 -0.3411436751423591 0.0
-0.08017595468166841 -0.14114367514235915 0.0
-0.23737048539333594 -0.33113270459830757 0.0
-0.2468426213483354 -0.3245308183932224 0.0
-0.0968426213483354 -0.13113270459830756 0.0
-0.4144660379316376 -0.32070381872666603 0.0
-0.40786415172655244 -0.33017595468166544 0.0
-0.4644660379316376 -0.4301759546816655 0.0
-0.4479080339027582 -0.26350928801499846 0.0
-0.42447700847568914 -0.304037152059999 0.0
-0.4744770084756892 -0.4135092880149985 0.0
-0.3245308183932224 -0.24684262134833543 0.0
-0.33113270459830757 -0.23737048539333594 0.0
-0.13113270459830756 -0.0968426213483354 0.0
-0.3411436751423591 -0.22070381872666894 0.0
-0.36457470056942815 -0.18017595468166842 0.0
-0.14114367514235915 -0.08017595468166841 0.0
-0.40140457141113317 -0.06666666666666698 0.0
-0.4066011428527857 -0.016666666666666996 0.0
-0.1616011428527857 -0.016666666666666996 0.0
-0.016666666666666996 -0.4066011428527857 0.0
-0.06666666666666698 -0.40140457141113317 0.0
-0.016666666666666996 -0.1616011428527857 0.0
0.4014045714111282 -0.06666666666666698 0.0
0.16160114285278082 -0.016666666666666996 0.0
0.4066011428527808 -0.016666666666666996 0.0
0.48993447618611585 -0.016666666666665997 0.0
0.4949344761861159 -0.016666666666665997 0.0
0.4847379047444633 -0.06666666666666599 0.0
0.39119748505988733 -0.3477993712649717 0.0
0.44779937126497255 -0.4477993712649717 0.0
0.3477993712649725 -0.3911974850598865 0.0
0.2644660379316367 -0.3078641517265524 0.0
0.1144660379316367 -0.11446603793163757 0.0
0.30786415172655146 -0.2644660379316376 0.0
0.233333333333335 -0.46117584342220774 0.0
0.38333333333333497 -0.4877448179951388 0.0
0.18333333333333499 -0.47754824655348627 0.0
0.150000000000002 -0.4864045714111299 0.0
0.350000000000002 -0.49660114285278245 0.0
0.10000000000000199 -0.49660114285278245 0.0
0.099999999999999 -0.39421491322015156 0.0
0.049999999999999024 -0.15441148466180413 0.0
0.149999999999999 -0.37784251008887304 0.0
0.49660114285278234 -0.350000000000002 0.0
0.4864045714111298 -0.15000000000000197 0.0
0.4966011428527824 -0.10000000000000198 0.0
0.4775482465534865 -0.183333333333334 0.0
0.4877448179951391 -0.38333333333333397 0.0
0.4611758434222081 -0.233333333333334 0.0
0.3778425100888727 -0.15 0.0
0.15441148466180377 -0.04999999999999999 0.0
0.39421491322015123 -0.09999999999999998 0.0
0.44790803390275913 -0.2635092880150006 0.0
0.4744770084756902 -0.41350928801500064 0.0
0.42447700847569014 -0.3040371520600009 0.0
0.4144660379316387 -0.32070381872666776 0.0
0.46446603793163865 -0.43017595468166736 0.0
0.40786415172655344 -0.3301759546816673 0.0
0.34114367514235466 -0.22070381872666678 0.0
0.1411436751423547 -0.08017595468166641 0.0
0.36457470056942365 -0.18017595468166642 0.0
0.32453081839321835 -0.24684262134833257 0.0
0.13113270459830356 -0.0968426213483326 0.0
0.3311327045983036 -0.237370485393333 0.0
0.3301759546816676 -0.4078641517265534 0.0
0.4301759546816676 -0.46446603793163854 0.0
0.3207038187266681 -0.4144660379316386 0.0
0.30403715206000187 -0.4244770084756897 0.0
0.4135092880150014 -0.47447700847568963 0.0
0.2635092880150014 -0.4479080339027587 0.0
0.2373704853933329 -0.3311327045983037 0.0
0.09684262134833244 -0.13113270459830373 0.0
0.2468426213483324 -0.3245308183932185 0.0
0.1801759546816656 -0.3645747005694241 0.0
0.08017595468166563 -0.14114367514235515 0.0
0.22070381872666606 -0.34114367514235516 0.0
0.016666666666666996 -0.16160114285278082 0.0
0.06666666666666698 -0.4014045714111283 0.0
0.016666666666666996 -0.4066011428527808 0.0
0.016666666666667 -0.48993447618611574 0.0
0.06666666666666698 -0.4847379047444632 0.0
0.016666666666666996 -0.49493447618611575 0.0
0.6056624327025937 -0.39433756729740643 0.0
0.8943375672974065 -0.39433756729740643 0.0
0.6056624327025937 -0.10566243270259357 0.0
0.8943375672974065 -0.10566243270259357 0.0
-0.8943375672974065 0.10566243270259357 0.0
-0.6056624327025937 0.10566243270259357 0.0
-0.8943375672974065 0.39433756729740643 0.0
-0.6056624327025937 0.39433756729740643 0.0
-0.1801759546816656 0.36457470056942415 0.0
-0.0801759546816656 0.14114367514235518 0.0
-0.220703818726666 0.3411436751423552 0.0
-0.23737048539333278 0.3311327045983037 0.0
-0.09684262134833241 0.1311327045983037 0.0
-0.2468426213483324 0.3245308183932185 0.0
-0.15000000000000197 0.4864045714111298 0.0
-0.350000000000002 0.49660114285278234 0.0
-0.10000000000000199 0.49660114285278245 0.0
-0.3911974850598874 0.3477993712649716 0.0
-0.44779937126497255 0.4477993712649717 0.0
-0.3477993712649726 0.3911974850598865 0.0
-0.2644660379316367 0.30786415172655235 0.0
-0.1144660379316367 0.11446603793163757 0.0
-0.3078641517265515 0.26446603793163753 0.0
-0.4775482465534866 0.18333333333333401 0.0
-0.48774481799513913 0.38333333333333397 0.0
-0.4611758434222081 0.233333333333334 0.0
-0.49660114285278245 0.350000000000002 0.0
-0.4864045714111299 0.150000000000002 0.0
-0.49660114285278245 0.10000000000000199 0.0
-0.3778425100888727 0.15 0.0
-0.1544114846618038 0.04999999999999999 0.0
-0.39421491322015123 0.1 0.0
-0.3040371520600018 0.4244770084756897 0.0
-0.4135092880150014 0.4744770084756897 0.0
-0.2635092880150014 0.4479080339027587 0.0
-0.016666666666666996 0.4899344761861157 0.0
-0.06666666666666698 0.4847379047444631 0.0
-0.016666666666666996 0.4949344761861157 0.0
-0.016666666666666996 0.16160114285278082 0.0
-0.06666666666666698 0.4014045714111282 0.0
-0.016666666666666996 0.40660114285278076 0.0
-0.09999999999999899 0.39421491322015145 0.0
-0.04999999999999899 0.1544114846618041 0.0
-0.14999999999999897 0.37784251008887304 0.0
-0.233333333333335 0.46117584342220774 0.0
-0.38333333333333497 0.48774481799513875 0.0
-0.18333333333333499 0.47754824655348616 0.0
-0.4144660379316387 0.3207038187266679 0.0
-0.4644660379316387 0.4301759546816674 0.0
-0.40786415172655355 0.33017595468166744 0.0
-0.44790803390275913 0.2635092880150006 0.0
-0.4744770084756902 0.41350928801500064 0.0
-0.42447700847569014 0.30403715206000104 0.0
-0.3245308183932184 0.24684262134833257 0.0
-0.1311327045983036 0.09684262134833263 0.0
-0.3311327045983036 0.23737048539333305 0.0
-0.34114367514235466 0.22070381872666683 0.0
-0.1411436751423547 0.08017595468166644 0.0
-0.36457470056942365 0.18017595468166642 0.0
-0.4014045714111283 0.06666666666666701 0.0
-0.16160114285278085 0.016666666666666996 0.0
-0.4066011428527808 0.016666666666666996 0.0
-0.3301759546816676 0.4078641517265533 0.0
-0.4301759546816676 0.46446603793163854 0.0
-0.320703818726668 0.4144660379316385 0.0
-0.48993447618611585 0.016666666666666025 0.0
-0.49493447618611597 0.016666666666665997 0.0
-0.48473790474446343 0.06666666666666601 0.0
0.30403715205999865 0.42447700847568914 0.0
0.2635092880149984 0.447908033902758 0.0
0.4135092880149984 0.4744770084756892 0.0
0.016666666666666996 0.4949344761861158 0.0
0.06666666666666698 0.4847379047444632 0.0
0.016666666666666996 0.48993447618611574 0.0
0.49660114285278234 0.09999999999999704 0.0
0.4864045714111298 0.14999999999999702 0.0
0.4966011428527824 0.34999999999999704 0.0
0.47754824655348593 0.18333333333333102 0.0
0.4611758434222074 0.23333333333333103 0.0
0.4877448179951386 0.3833333333333311 0.0
0.37784251008887737 0.150000000000001 0.0
0.3942149132201559 0.10000000000000098 0.0
0.15441148466180848 0.05000000000000099 0.0
0.26446603793164053 0.30786415172655524 0.0
0.30786415172655524 0.2644660379316405 0.0
0.11446603793164051 0.11446603793164051 0.0
0.3911974850598853 0.3477993712649705 0.0
0.3477993712649705 0.3911974850598853 0.0
0.4477993712649705 0.4477993712649705 0.0
0.100000000000001 0.3942149132201559 0.0
0.150000000000001 0.37784251008887737 0.0
0.05000000000000099 0.1544114846618085 0.0
0.23333333333333103 0.4611758434222074 0.0
0.18333333333333102 0.47754824655348593 0.0
0.38333333333333103 0.4877448179951385 0.0
0.14999999999999702 0.4864045714111298 0.0
0.09999999999999704 0.49660114285278234 0.0
0.3499999999999971 0.49660114285278245 0.0
0.4899344761861157 0.016666666666666996 0.0
0.4847379047444631 0.06666666666666698 0.0
0.4949344761861157 0.016666666666666996 0.0
0.016666666666666996 0.40660114285278565 0.0
0.06666666666666698 0.40140457141113306 0.0
0.016666666666666996 0.16160114285278565 0.0
0.40140457141113306 0.06666666666666701 0.0
0.40660114285278565 0.016666666666666996 0.0
0.16160114285278568 0.016666666666666996 0.0
0.447908033902758 0.2635092880149984 0.0
0.42447700847568914 0.30403715205999865 0.0
0.4744770084756892 0.4135092880149984 0.0
0.41446603793163755 0.32070381872666565 0.0
0.40786415172655227 0.3301759546816654 0.0
0.4644660379316375 0.43017595468166536 0.0
0.3411436751423591 0.22070381872666864 0.0
0.364574700569428 0.18017595468166836 0.0
0.1411436751423591 0.08017595468166835 0.0
0.32453081839322223 0.24684262134833534 0.0
0.33113270459830757 0.23737048539333563 0.0
0.1311327045983075 0.09684262134833535 0.0
0.23737048539333563 0.33113270459830757 0.0
0.24684262134833534 0.32453081839322223 0.0
0.09684262134833535 0.1311327045983075 0.0
0.18017595468166836 0.364574700569428 0.0
0.22070381872666864 0.3411436751423591 0.0
0.08017595468166835 0.1411436751423591 0.0
0.3301759546816654 0.40786415172655227 0.0
0.32070381872666565 0.41446603793163755 0.0
0.43017595468166536 0.4644660379316375 0.0
0.6056624327025937 0.10566243270259357 0.0
0.8943375672974065 0.10566243270259357 0.0
0.6056624327025937 0.39433756729740643 0.0
0.8943375672974065 0.39433756729740643 0.0
-0.8943375672974065 0.6056624327025936 0.0
-0.6056624327025937 0.6056624327025936 0.0
-0.8943375672974065 0.8943375672974065 0.0
-0.6056624327025937 0.8943375672974065 0.0
-0.39433756729740643 0.6056624327025936 0.0
-0.10566243270259357 0.6056624327025936 0.0
-0.39433756729740643 0.8943375672974065 0.0
-0.10566243270259357 0.8943375672974065 0.0
0.10566243270259357 0.6056624327025936 0.0
0.39433756729740643 0.6056624327025936 0.0
0.10566243270259357 0.8943375672974065 0.0
0.39433756729740643 0.8943375672974065 0.0
0.6056624327025937 0.6056624327025936 0.0
0.8943375672974065 0.6056624327025936 0.0
0.6056624327025937 0.8943375672974065 0.0
0.8943375672974065 0.8943375672974065 0.0


POINT_DATA 288
SCALARS element_ids double 1
LOOKUP_TABLE default
0
0
0
0
1
1
1
1
2
2
2
2
3
3
3
3
4
4
4
4
5
5
5
5
5
5
5
5
5
5
5
5
5
5
5
5
5
5
5
5
5
5
5
5
5
5
5
5
5
5
5
5
5
5
5
5
5
5
5
5
5
5
5
5
5
5
5
5
5
5
5
5
5
5
5
5
5
5
5
5
6
6
6
6
6
6
6
6
6
6
6
6
6
6
6
6
6
6
6
6
6
6
6
6
6
6
6
6
6
6
6
6
6
6
6
6
6
6
6
6
6
6
6
6
6
6
6
6
6
6
6
6
6
6
6
6
6
6
6
6
7
7
7
7
8
8
8
8
9
9
9
9
9
9
9
9
9
9
9
9
9
9
9
9
9
9
9
9
9
9
9
9
9
9
9
9
9
9
9
9
9
9
9
9
9
9
9
9
9
9
9
9
9
9
9
9
9
9
9
9
9
9
9
9
9
9
9
9
10
10
10
10
10
10
10
10
10
10
10
10
10
10
10
10
10
10
10
10
10
10
10
10
10
10
10
10
10
10
10
10
10
10
10
10
10
10
10
10
10
10
10
10
10
10
10
10
10
10
10
10
10
10
10
10
10
10
10
10
11
11
11
11
12
12
12
12
13
13
13
13
14
14
14
14
15
15
15
15

