# vtk DataFile Version 4.1
Header:
ASCII

DATASET UNSTRUCTURED_GRID
POINTS 72 double
-0.021132486540518722 -0.48780367047904877 0.0
-0.07886751345948127 -0.4818031866376462 0.0
-0.1211324865405187 -0.47268706534054117 0.0
-0.1788675134594813 -0.45378184263029187 0.0
-0.21712909082893891 -0.4369589342647763 0.0
-0.2639266372610621 -0.40990311658936174 0.0
-0.2850591238015808 -0.39720971457258003 0.0
-0.2959966042884201 -0.38958651301724967 0.0
-0.31834220111309874 -0.368454026476731 0.0
-0.368454026476731 -0.31834220111309874 0.0
-0.38958651301724967 -0.2959966042884201 0.0
-0.39720971457258003 -0.2850591238015808 0.0
-0.40990311658936174 -0.2639266372610621 0.0
-0.4369589342647763 -0.21712909082893891 0.0
-0.45378184263029187 -0.1788675134594813 0.0
-0.47268706534054117 -0.1211324865405187 0.0
-0.4818031866376462 -0.07886751345948127 0.0
-0.48780367047904877 -0.021132486540518722 0.0
0.4878036704790486 -0.02113248654051872 0.0
0.4818031866376462 -0.07886751345948129 0.0
0.4726870653405411 -0.1211324865405187 0.0
0.45378184263029175 -0.1788675134594813 0.0
0.43695893426477617 -0.21712909082893886 0.0
0.40990311658936174 -0.2639266372610619 0.0
0.39720971457258003 -0.28505912380158066 0.0
0.38958651301724956 -0.2959966042884201 0.0
0.36845402647673087 -0.31834220111309874 0.0
0.31834220111309874 -0.368454026476731 0.0
0.2959966042884202 -0.3895865130172496 0.0
0.2850591238015807 -0.39720971457258003 0.0
0.263926637261062 -0.40990311658936174 0.0
0.21712909082893886 -0.43695893426477617 0.0
0.1788675134594813 -0.45378184263029175 0.0
0.12113248654051872 -0.47268706534054117 0.0
0.07886751345948127 -0.4818031866376462 0.0
0.021132486540518722 -0.48780367047904877 0.0
-0.48780367047904877 0.021132486540518722 0.0
-0.4818031866376462 0.07886751345948127 0.0
-0.47268706534054117 0.12113248654051872 0.0
-0.45378184263029175 0.1788675134594813 0.0
-0.43695893426477617 0.21712909082893886 0.0
-0.40990311658936174 0.263926637261062 0.0
-0.39720971457258003 0.2850591238015807 0.0
-0.3895865130172496 0.2959966042884202 0.0
-0.368454026476731 0.31834220111309874 0.0
-0.31834220111309874 0.36845402647673087 0.0
-0.2959966042884201 0.38958651301724956 0.0
-0.28505912380158066 0.39720971457258003 0.0
-0.2639266372610619 0.40990311658936174 0.0
-0.21712909082893886 0.43695893426477617 0.0
-0.1788675134594813 0.45378184263029175 0.0
-0.1211324865405187 0.4726870653405411 0.0
-0.07886751345948129 0.4818031866376462 0.0
-0.02113248654051872 0.4878036704790486 0.0
0.4878036704790486 0.02113248654051872 0.0
0.4818031866376462 0.07886751345948129 0.0
0.472687065340541 0.12113248654051872 0.0
0.4537818426302916 0.1788675134594813 0.0
0.43695893426477606 0.21712909082893883 0.0
0.40990311658936174 0.26392663726106175 0.0
0.39720971457258003 0.2850591238015805 0.0
0.38958651301724945 0.2959966042884201 0.0
0.36845402647673076 0.3183422011130987 0.0
0.3183422011130987 0.36845402647673076 0.0
0.2959966042884201 0.38958651301724945 0.0
0.2850591238015805 0.39720971457258003 0.0
0.26392663726106175 0.40990311658936174 0.0
0.21712909082893883 0.43695893426477606 0.0
0.1788675134594813 0.4537818426302916 0.0
0.12113248654051872 0.472687065340541 0.0
0.07886751345948129 0.4818031866376462 0.0
0.02113248654051872 0.4878036704790486 0.0


POINT_DATA 72
SCALARS element_ids double 1
LOOKUP_TABLE default
5
5
5
5
5
5
5
5
5
5
5
5
5
5
5
5
5
5
6
6
6
6
6
6
6
6
6
6
6
6
6
6
6
6
6
6
9
9
9
9
9
9
9
9
9
9
9
9
9
9
9
9
9
9
10
10
10
10
10
10
10
10
10
10
10
10
10
10
10
10
10
10

