# vtk DataFile Version 4.1
Header:
ASCII

DATASET UNSTRUCTURED_GRID
POINTS 40 double
0 -0.49 0
-0.09999999999999998 -0.47960685711669493 0
-0.2 -0.44686205085413805 0
-0.281055728090001 -0.4 0
-0.3 -0.38679622758982973 0
-0.38679622758982973 -0.3 0
-0.4 -0.281055728090001 0
-0.44686205085413805 -0.2 0
-0.47960685711669493 -0.09999999999999998 0
-0.49 0 0
0.48999999999999994 0 0
0.4796068571166948 -0.09999999999999998 0
0.44686205085413794 -0.2 0
0.4 -0.2810557280900008 0
0.38679622758982957 -0.3 0
0.3 -0.3867962275898297 0
0.2810557280900009 -0.4 0
0.2 -0.44686205085413794 0
0.1 -0.479606857116695 0
0 -0.49 0
-0.49 0 0
-0.479606857116695 0.1 0
-0.44686205085413794 0.2 0
-0.4 0.2810557280900009 0
-0.3867962275898297 0.3 0
-0.3 0.38679622758982957 0
-0.2810557280900008 0.4 0
-0.2 0.44686205085413794 0
-0.09999999999999998 0.4796068571166948 0
0 0.48999999999999994 0
0.48999999999999994 0 0
0.4796068571166948 0.1 0
0.44686205085413777 0.2 0
0.4 0.28105572809000057 0
0.38679622758982946 0.3 0
0.3 0.38679622758982946 0
0.28105572809000057 0.4 0
0.2 0.44686205085413777 0
0.1 0.4796068571166948 0
0 0.48999999999999994 0

CELLS 36 108
2 0 1
2 1 2
2 2 3
2 3 4
2 4 5
2 5 6
2 6 7
2 7 8
2 8 9
2 10 11
2 11 12
2 12 13
2 13 14
2 14 15
2 15 16
2 16 17
2 17 18
2 18 19
2 20 21
2 21 22
2 22 23
2 23 24
2 24 25
2 25 26
2 26 27
2 27 28
2 28 29
2 30 31
2 31 32
2 32 33
2 33 34
2 34 35
2 35 36
2 36 37
2 37 38
2 38 39

CELL_TYPES 36
3
3
3
3
3
3
3
3
3
3
3
3
3
3
3
3
3
3
3
3
3
3
3
3
3
3
3
3
3
3
3
3
3
3
3
3


POINT_DATA 40
SCALARS elementID double 1
LOOKUP_TABLE default
5
5
5
5
5
5
5
5
5
5
6
6
6
6
6
6
6
6
6
6
9
9
9
9
9
9
9
9
9
9
10
10
10
10
10
10
10
10
10
10

SCALARS lsm_geometryID double 1
LOOKUP_TABLE default
0
0
0
0
0
0
0
0
0
0
0
0
0
0
0
0
0
0
0
0
0
0
0
0
0
0
0
0
0
0
0
0
0
0
0
0
0
0
0
0

