# vtk DataFile Version 4.1
Header:
ASCII

DATASET UNSTRUCTURED_GRID
POINTS 25 double
-1 -1 0.0
-0.5 -1 0.0
0 -1 0.0
0.5 -1 0.0
1 -1 0.0
-1 -0.5 0.0
-0.5 -0.5 0.0
0 -0.5 0.0
0.5 -0.5 0.0
1 -0.5 0.0
-1 0 0.0
-0.5 0 0.0
0 0 0.0
0.5 0 0.0
1 0 0.0
-1 0.5 0.0
-0.5 0.5 0.0
0 0.5 0.0
0.5 0.5 0.0
1 0.5 0.0
-1 1 0.0
-0.5 1 0.0
0 1 0.0
0.5 1 0.0
1 1 0.0


POINT_DATA 25
SCALARS level_set double 1
LOOKUP_TABLE default
0.9242135623730952
0.6280339887498949
0.51
0.6280339887498949
0.9242135623730952
0.6280339887498949
0.21710678118654758
0.010000000000000009
0.21710678118654758
0.6280339887498949
0.51
0.010000000000000009
-0.49
0.010000000000000009
0.51
0.6280339887498949
0.21710678118654758
0.010000000000000009
0.21710678118654758
0.6280339887498949
0.9242135623730952
0.6280339887498949
0.51
0.6280339887498949
0.9242135623730952

