# vtk DataFile Version 4.1
Header:
ASCII

DATASET UNSTRUCTURED_GRID
POINTS 441 double
-1 -1 0.0
-0.9 -1 0.0
-0.8 -1 0.0
-0.7 -1 0.0
-0.6 -1 0.0
-0.5 -1 0.0
-0.3999999999999999 -1 0.0
-0.29999999999999993 -1 0.0
-0.19999999999999996 -1 0.0
-0.09999999999999998 -1 0.0
0 -1 0.0
0.10000000000000009 -1 0.0
0.20000000000000018 -1 0.0
0.30000000000000004 -1 0.0
0.40000000000000013 -1 0.0
0.5 -1 0.0
0.6000000000000001 -1 0.0
0.7000000000000002 -1 0.0
0.8 -1 0.0
0.9000000000000001 -1 0.0
1 -1 0.0
-1 -0.9 0.0
-0.9 -0.9 0.0
-0.8 -0.9 0.0
-0.7 -0.9 0.0
-0.6 -0.9 0.0
-0.5 -0.9 0.0
-0.3999999999999999 -0.9 0.0
-0.29999999999999993 -0.9 0.0
-0.19999999999999996 -0.9 0.0
-0.09999999999999998 -0.9 0.0
0 -0.9 0.0
0.10000000000000009 -0.9 0.0
0.20000000000000018 -0.9 0.0
0.30000000000000004 -0.9 0.0
0.40000000000000013 -0.9 0.0
0.5 -0.9 0.0
0.6000000000000001 -0.9 0.0
0.7000000000000002 -0.9 0.0
0.8 -0.9 0.0
0.9000000000000001 -0.9 0.0
1 -0.9 0.0
-1 -0.8 0.0
-0.9 -0.8 0.0
-0.8 -0.8 0.0
-0.7 -0.8 0.0
-0.6 -0.8 0.0
-0.5 -0.8 0.0
-0.3999999999999999 -0.8 0.0
-0.29999999999999993 -0.8 0.0
-0.19999999999999996 -0.8 0.0
-0.09999999999999998 -0.8 0.0
0 -0.8 0.0
0.10000000000000009 -0.8 0.0
0.20000000000000018 -0.8 0.0
0.30000000000000004 -0.8 0.0
0.40000000000000013 -0.8 0.0
0.5 -0.8 0.0
0.6000000000000001 -0.8 0.0
0.7000000000000002 -0.8 0.0
0.8 -0.8 0.0
0.9000000000000001 -0.8 0.0
1 -0.8 0.0
-1 -0.7 0.0
-0.9 -0.7 0.0
-0.8 -0.7 0.0
-0.7 -0.7 0.0
-0.6 -0.7 0.0
-0.5 -0.7 0.0
-0.3999999999999999 -0.7 0.0
-0.29999999999999993 -0.7 0.0
-0.19999999999999996 -0.7 0.0
-0.09999999999999998 -0.7 0.0
0 -0.7 0.0
0.10000000000000009 -0.7 0.0
0.20000000000000018 -0.7 0.0
0.30000000000000004 -0.7 0.0
0.40000000000000013 -0.7 0.0
0.5 -0.7 0.0
0.6000000000000001 -0.7 0.0
0.7000000000000002 -0.7 0.0
0.8 -0.7 0.0
0.9000000000000001 -0.7 0.0
1 -0.7 0.0
-1 -0.6 0.0
-0.9 -0.6 0.0
-0.8 -0.6 0.0
-0.7 -0.6 0.0
-0.6 -0.6 0.0
-0.5 -0.6 0.0
-0.3999999999999999 -0.6 0.0
-0.29999999999999993 -0.6 0.0
-0.19999999999999996 -0.6 0.0
-0.09999999999999998 -0.6 0.0
0 -0.6 0.0
0.10000000000000009 -0.6 0.0
0.20000000000000018 -0.6 0.0
0.30000000000000004 -0.6 0.0
0.40000000000000013 -0.6 0.0
0.5 -0.6 0.0
0.6000000000000001 -0.6 0.0
0.7000000000000002 -0.6 0.0
0.8 -0.6 0.0
0.9000000000000001 -0.6 0.0
1 -0.6 0.0
-1 -0.5 0.0
-0.9 -0.5 0.0
-0.8 -0.5 0.0
-0.7 -0.5 0.0
-0.6 -0.5 0.0
-0.5 -0.5 0.0
-0.3999999999999999 -0.5 0.0
-0.29999999999999993 -0.5 0.0
-0.19999999999999996 -0.5 0.0
-0.09999999999999998 -0.5 0.0
0 -0.5 0.0
0.10000000000000009 -0.5 0.0
0.20000000000000018 -0.5 0.0
0.30000000000000004 -0.5 0.0
0.40000000000000013 -0.5 0.0
0.5 -0.5 0.0
0.6000000000000001 -0.5 0.0
0.7000000000000002 -0.5 0.0
0.8 -0.5 0.0
0.9000000000000001 -0.5 0.0
1 -0.5 0.0
-1 -0.3999999999999999 0.0
-0.9 -0.3999999999999999 0.0
-0.8 -0.3999999999999999 0.0
-0.7 -0.3999999999999999 0.0
-0.6 -0.3999999999999999 0.0
-0.5 -0.3999999999999999 0.0
-0.3999999999999999 -0.3999999999999999 0.0
-0.29999999999999993 -0.3999999999999999 0.0
-0.19999999999999996 -0.3999999999999999 0.0
-0.09999999999999998 -0.3999999999999999 0.0
0 -0.3999999999999999 0.0
0.10000000000000009 -0.3999999999999999 0.0
0.20000000000000018 -0.3999999999999999 0.0
0.30000000000000004 -0.3999999999999999 0.0
0.40000000000000013 -0.3999999999999999 0.0
0.5 -0.3999999999999999 0.0
0.6000000000000001 -0.3999999999999999 0.0
0.7000000000000002 -0.3999999999999999 0.0
0.8 -0.3999999999999999 0.0
0.9000000000000001 -0.3999999999999999 0.0
1 -0.3999999999999999 0.0
-1 -0.29999999999999993 0.0
-0.9 -0.29999999999999993 0.0
-0.8 -0.29999999999999993 0.0
-0.7 -0.29999999999999993 0.0
-0.6 -0.29999999999999993 0.0
-0.5 -0.29999999999999993 0.0
-0.3999999999999999 -0.29999999999999993 0.0
-0.29999999999999993 -0.29999999999999993 0.0
-0.19999999999999996 -0.29999999999999993 0.0
-0.09999999999999998 -0.29999999999999993 0.0
0 -0.29999999999999993 0.0
0.10000000000000009 -0.29999999999999993 0.0
0.20000000000000018 -0.29999999999999993 0.0
0.30000000000000004 -0.29999999999999993 0.0
0.40000000000000013 -0.29999999999999993 0.0
0.5 -0.29999999999999993 0.0
0.6000000000000001 -0.29999999999999993 0.0
0.7000000000000002 -0.29999999999999993 0.0
0.8 -0.29999999999999993 0.0
0.9000000000000001 -0.29999999999999993 0.0
1 -0.29999999999999993 0.0
-1 -0.19999999999999996 0.0
-0.9 -0.19999999999999996 0.0
-0.8 -0.19999999999999996 0.0
-0.7 -0.19999999999999996 0.0
-0.6 -0.19999999999999996 0.0
-0.5 -0.19999999999999996 0.0
-0.3999999999999999 -0.19999999999999996 0.0
-0.29999999999999993 -0.19999999999999996 0.0
-0.19999999999999996 -0.19999999999999996 0.0
-0.09999999999999998 -0.19999999999999996 0.0
0 -0.19999999999999996 0.0
0.10000000000000009 -0.19999999999999996 0.0
0.20000000000000018 -0.19999999999999996 0.0
0.30000000000000004 -0.19999999999999996 0.0
0.40000000000000013 -0.19999999999999996 0.0
0.5 -0.19999999999999996 0.0
0.6000000000000001 -0.19999999999999996 0.0
0.7000000000000002 -0.19999999999999996 0.0
0.8 -0.19999999999999996 0.0
0.9000000000000001 -0.19999999999999996 0.0
1 -0.19999999999999996 0.0
-1 -0.09999999999999998 0.0
-0.9 -0.09999999999999998 0.0
-0.8 -0.09999999999999998 0.0
-0.7 -0.09999999999999998 0.0
-0.6 -0.09999999999999998 0.0
-0.5 -0.09999999999999998 0.0
-0.3999999999999999 -0.09999999999999998 0.0
-0.29999999999999993 -0.09999999999999998 0.0
-0.19999999999999996 -0.09999999999999998 0.0
-0.09999999999999998 -0.09999999999999998 0.0
0 -0.09999999999999998 0.0
0.10000000000000009 -0.09999999999999998 0.0
0.20000000000000018 -0.09999999999999998 0.0
0.30000000000000004 -0.09999999999999998 0.0
0.40000000000000013 -0.09999999999999998 0.0
0.5 -0.09999999999999998 0.0
0.6000000000000001 -0.09999999999999998 0.0
0.7000000000000002 -0.09999999999999998 0.0
0.8 -0.09999999999999998 0.0
0.9000000000000001 -0.09999999999999998 0.0
1 -0.09999999999999998 0.0
-1 0 0.0
-0.9 0 0.0
-0.8 0 0.0
-0.7 0 0.0
-0.6 0 0.0
-0.5 0 0.0
-0.3999999999999999 0 0.0
-0.29999999999999993 0 0.0
-0.19999999999999996 0 0.0
-0.09999999999999998 0 0.0
0 0 0.0
0.10000000000000009 0 0.0
0.20000000000000018 0 0.0
0.30000000000000004 0 0.0
0.40000000000000013 0 0.0
0.5 0 0.0
0.6000000000000001 0 0.0
0.7000000000000002 0 0.0
0.8 0 0.0
0.9000000000000001 0 0.0
1 0 0.0
-1 0.10000000000000009 0.0
-0.9 0.10000000000000009 0.0
-0.8 0.10000000000000009 0.0
-0.7 0.10000000000000009 0.0
-0.6 0.10000000000000009 0.0
-0.5 0.10000000000000009 0.0
-0.3999999999999999 0.10000000000000009 0.0
-0.29999999999999993 0.10000000000000009 0.0
-0.19999999999999996 0.10000000000000009 0.0
-0.09999999999999998 0.10000000000000009 0.0
0 0.10000000000000009 0.0
0.10000000000000009 0.10000000000000009 0.0
0.20000000000000018 0.10000000000000009 0.0
0.30000000000000004 0.10000000000000009 0.0
0.40000000000000013 0.10000000000000009 0.0
0.5 0.10000000000000009 0.0
0.6000000000000001 0.10000000000000009 0.0
0.7000000000000002 0.10000000000000009 0.0
0.8 0.10000000000000009 0.0
0.9000000000000001 0.10000000000000009 0.0
1 0.10000000000000009 0.0
-1 0.20000000000000018 0.0
-0.9 0.20000000000000018 0.0
-0.8 0.20000000000000018 0.0
-0.7 0.20000000000000018 0.0
-0.6 0.20000000000000018 0.0
-0.5 0.20000000000000018 0.0
-0.3999999999999999 0.20000000000000018 0.0
-0.29999999999999993 0.20000000000000018 0.0
-0.19999999999999996 0.20000000000000018 0.0
-0.09999999999999998 0.20000000000000018 0.0
0 0.20000000000000018 0.0
0.10000000000000009 0.20000000000000018 0.0
0.20000000000000018 0.20000000000000018 0.0
0.30000000000000004 0.20000000000000018 0.0
0.40000000000000013 0.20000000000000018 0.0
0.5 0.20000000000000018 0.0
0.6000000000000001 0.20000000000000018 0.0
0.7000000000000002 0.20000000000000018 0.0
0.8 0.20000000000000018 0.0
0.9000000000000001 0.20000000000000018 0.0
1 0.20000000000000018 0.0
-1 0.30000000000000004 0.0
-0.9 0.30000000000000004 0.0
-0.8 0.30000000000000004 0.0
-0.7 0.30000000000000004 0.0
-0.6 0.30000000000000004 0.0
-0.5 0.30000000000000004 0.0
-0.3999999999999999 0.30000000000000004 0.0
-0.29999999999999993 0.30000000000000004 0.0
-0.19999999999999996 0.30000000000000004 0.0
-0.09999999999999998 0.30000000000000004 0.0
0 0.30000000000000004 0.0
0.10000000000000009 0.30000000000000004 0.0
0.20000000000000018 0.30000000000000004 0.0
0.30000000000000004 0.30000000000000004 0.0
0.40000000000000013 0.30000000000000004 0.0
0.5 0.30000000000000004 0.0
0.6000000000000001 0.30000000000000004 0.0
0.7000000000000002 0.30000000000000004 0.0
0.8 0.30000000000000004 0.0
0.9000000000000001 0.30000000000000004 0.0
1 0.30000000000000004 0.0
-1 0.40000000000000013 0.0
-0.9 0.40000000000000013 0.0
-0.8 0.40000000000000013 0.0
-0.7 0.40000000000000013 0.0
-0.6 0.40000000000000013 0.0
-0.5 0.40000000000000013 0.0
-0.3999999999999999 0.40000000000000013 0.0
-0.29999999999999993 0.40000000000000013 0.0
-0.19999999999999996 0.40000000000000013 0.0
-0.09999999999999998 0.40000000000000013 0.0
0 0.40000000000000013 0.0
0.10000000000000009 0.40000000000000013 0.0
0.20000000000000018 0.40000000000000013 0.0
0.30000000000000004 0.40000000000000013 0.0
0.40000000000000013 0.40000000000000013 0.0
0.5 0.40000000000000013 0.0
0.6000000000000001 0.40000000000000013 0.0
0.7000000000000002 0.40000000000000013 0.0
0.8 0.40000000000000013 0.0
0.9000000000000001 0.40000000000000013 0.0
1 0.40000000000000013 0.0
-1 0.5 0.0
-0.9 0.5 0.0
-0.8 0.5 0.0
-0.7 0.5 0.0
-0.6 0.5 0.0
-0.5 0.5 0.0
-0.3999999999999999 0.5 0.0
-0.29999999999999993 0.5 0.0
-0.19999999999999996 0.5 0.0
-0.09999999999999998 0.5 0.0
0 0.5 0.0
0.10000000000000009 0.5 0.0
0.20000000000000018 0.5 0.0
0.30000000000000004 0.5 0.0
0.40000000000000013 0.5 0.0
0.5 0.5 0.0
0.6000000000000001 0.5 0.0
0.7000000000000002 0.5 0.0
0.8 0.5 0.0
0.9000000000000001 0.5 0.0
1 0.5 0.0
-1 0.6000000000000001 0.0
-0.9 0.6000000000000001 0.0
-0.8 0.6000000000000001 0.0
-0.7 0.6000000000000001 0.0
-0.6 0.6000000000000001 0.0
-0.5 0.6000000000000001 0.0
-0.3999999999999999 0.6000000000000001 0.0
-0.29999999999999993 0.6000000000000001 0.0
-0.19999999999999996 0.6000000000000001 0.0
-0.09999999999999998 0.6000000000000001 0.0
0 0.6000000000000001 0.0
0.10000000000000009 0.6000000000000001 0.0
0.20000000000000018 0.6000000000000001 0.0
0.30000000000000004 0.6000000000000001 0.0
0.40000000000000013 0.6000000000000001 0.0
0.5 0.6000000000000001 0.0
0.6000000000000001 0.6000000000000001 0.0
0.7000000000000002 0.6000000000000001 0.0
0.8 0.6000000000000001 0.0
0.9000000000000001 0.6000000000000001 0.0
1 0.6000000000000001 0.0
-1 0.7000000000000002 0.0
-0.9 0.7000000000000002 0.0
-0.8 0.7000000000000002 0.0
-0.7 0.7000000000000002 0.0
-0.6 0.7000000000000002 0.0
-0.5 0.7000000000000002 0.0
-0.3999999999999999 0.7000000000000002 0.0
-0.29999999999999993 0.7000000000000002 0.0
-0.19999999999999996 0.7000000000000002 0.0
-0.09999999999999998 0.7000000000000002 0.0
0 0.7000000000000002 0.0
0.10000000000000009 0.7000000000000002 0.0
0.20000000000000018 0.7000000000000002 0.0
0.30000000000000004 0.7000000000000002 0.0
0.40000000000000013 0.7000000000000002 0.0
0.5 0.7000000000000002 0.0
0.6000000000000001 0.7000000000000002 0.0
0.7000000000000002 0.7000000000000002 0.0
0.8 0.7000000000000002 0.0
0.9000000000000001 0.7000000000000002 0.0
1 0.7000000000000002 0.0
-1 0.8 0.0
-0.9 0.8 0.0
-0.8 0.8 0.0
-0.7 0.8 0.0
-0.6 0.8 0.0
-0.5 0.8 0.0
-0.3999999999999999 0.8 0.0
-0.29999999999999993 0.8 0.0
-0.19999999999999996 0.8 0.0
-0.09999999999999998 0.8 0.0
0 0.8 0.0
0.10000000000000009 0.8 0.0
0.20000000000000018 0.8 0.0
0.30000000000000004 0.8 0.0
0.40000000000000013 0.8 0.0
0.5 0.8 0.0
0.6000000000000001 0.8 0.0
0.7000000000000002 0.8 0.0
0.8 0.8 0.0
0.9000000000000001 0.8 0.0
1 0.8 0.0
-1 0.9000000000000001 0.0
-0.9 0.9000000000000001 0.0
-0.8 0.9000000000000001 0.0
-0.7 0.9000000000000001 0.0
-0.6 0.9000000000000001 0.0
-0.5 0.9000000000000001 0.0
-0.3999999999999999 0.9000000000000001 0.0
-0.29999999999999993 0.9000000000000001 0.0
-0.19999999999999996 0.9000000000000001 0.0
-0.09999999999999998 0.9000000000000001 0.0
0 0.9000000000000001 0.0
0.10000000000000009 0.9000000000000001 0.0
0.20000000000000018 0.9000000000000001 0.0
0.30000000000000004 0.9000000000000001 0.0
0.40000000000000013 0.9000000000000001 0.0
0.5 0.9000000000000001 0.0
0.6000000000000001 0.9000000000000001 0.0
0.7000000000000002 0.9000000000000001 0.0
0.8 0.9000000000000001 0.0
0.9000000000000001 0.9000000000000001 0.0
1 0.9000000000000001 0.0
-1 1 0.0
-0.9 1 0.0
-0.8 1 0.0
-0.7 1 0.0
-0.6 1 0.0
-0.5 1 0.0
-0.3999999999999999 1 0.0
-0.29999999999999993 1 0.0
-0.19999999999999996 1 0.0
-0.09999999999999998 1 0.0
0 1 0.0
0.10000000000000009 1 0.0
0.20000000000000018 1 0.0
0.30000000000000004 1 0.0
0.40000000000000013 1 0.0
0.5 1 0.0
0.6000000000000001 1 0.0
0.7000000000000002 1 0.0
0.8 1 0.0
0.9000000000000001 1 0.0
1 1 0.0


POINT_DATA 441
SCALARS level_set double 1
LOOKUP_TABLE default
0.9242135623730952
0.8553624047073711
0.7906248474865698
0.7306555615733703
0.67619037896906
0.6280339887498949
0.5870329614269008
0.5540306508910549
0.529803902718557
0.514987562112089
0.51
0.514987562112089
0.529803902718557
0.5540306508910551
0.587032961426901
0.6280339887498949
0.6761903789690602
0.7306555615733703
0.7906248474865698
0.8553624047073711
0.9242135623730952
0.8553624047073711
0.7827922061357855
0.7141594578792296
0.6501754250991381
0.5916653826391967
0.5395630140987
0.4948857801796105
0.4586832980505138
0.43195444572928876
0.41553851381374174
0.41000000000000003
0.41553851381374174
0.43195444572928876
0.4586832980505139
0.4948857801796106
0.5395630140987
0.5916653826391969
0.6501754250991381
0.7141594578792296
0.7827922061357857
0.8553624047073711
0.7906248474865698
0.7141594578792296
0.6413708498984763
0.573014581273465
0.51
0.4533981132056605
0.40442719099991586
0.3644003745317532
0.33462112512353226
0.31622577482985503
0.31000000000000005
0.31622577482985503
0.33462112512353226
0.3644003745317532
0.4044271909999161
0.4533981132056605
0.51
0.573014581273465
0.6413708498984763
0.7141594578792296
0.7906248474865698
0.7306555615733703
0.6501754250991381
0.573014581273465
0.4999494936611665
0.43195444572928865
0.37023252670426265
0.3162257748298549
0.2715773105863908
0.23801098892805173
0.21710678118654747
0.20999999999999996
0.21710678118654747
0.23801098892805184
0.2715773105863908
0.31622577482985503
0.37023252670426265
0.43195444572928876
0.4999494936611667
0.573014581273465
0.6501754250991381
0.7306555615733703
0.67619037896906
0.5916653826391967
0.51
0.43195444572928865
0.35852813742385703
0.29102496759066543
0.2311102550927978
0.18082039324993693
0.1424555320336759
0.11827625302982192
0.10999999999999999
0.11827625302982192
0.1424555320336759
0.18082039324993693
0.23111025509279792
0.29102496759066543
0.35852813742385714
0.43195444572928887
0.51
0.5916653826391969
0.67619037896906
0.6280339887498949
0.5395630140987
0.4533981132056605
0.37023252670426265
0.29102496759066543
0.21710678118654758
0.1503124237432848
0.09309518948453
0.04851648071345038
0.019901951359278525
0.010000000000000009
0.019901951359278525
0.048516480713450494
0.0930951894845301
0.15031242374328502
0.21710678118654758
0.29102496759066554
0.37023252670426277
0.4533981132056605
0.5395630140987002
0.6280339887498949
0.5870329614269008
0.4948857801796105
0.40442719099991586
0.3162257748298549
0.2311102550927978
0.1503124237432848
0.07568542494923791
0.009999999999999898
-0.042786404500042174
-0.07768943743823403
-0.09000000000000008
-0.07768943743823403
-0.04278640450004206
0.009999999999999953
0.07568542494923813
0.1503124237432848
0.23111025509279792
0.31622577482985503
0.40442719099991586
0.4948857801796106
0.5870329614269008
0.5540306508910549
0.4586832980505138
0.3644003745317532
0.2715773105863908
0.18082039324993693
0.09309518948453
0.009999999999999898
-0.06573593128807159
-0.12944487245360115
-0.17377223398316216
-0.19000000000000006
-0.1737722339831621
-0.12944487245360103
-0.06573593128807148
0.010000000000000009
0.09309518948453
0.18082039324993693
0.271577310586391
0.3644003745317532
0.4586832980505139
0.5540306508910549
0.529803902718557
0.43195444572928876
0.33462112512353226
0.23801098892805173
0.1424555320336759
0.04851648071345038
-0.042786404500042174
-0.12944487245360115
-0.20715728752538104
-0.26639320225002106
-0.29000000000000004
-0.26639320225002106
-0.20715728752538093
-0.12944487245360103
-0.04278640450004195
0.04851648071345038
0.1424555320336759
0.23801098892805206
0.33462112512353226
0.43195444572928887
0.529803902718557
0.514987562112089
0.41553851381374174
0.31622577482985503
0.21710678118654747
0.11827625302982192
0.019901951359278525
-0.07768943743823403
-0.17377223398316216
-0.26639320225002106
-0.34857864376269054
-0.39
-0.34857864376269043
-0.2663932022500209
-0.17377223398316205
-0.07768943743823381
0.019901951359278525
0.11827625302982203
0.2171067811865477
0.31622577482985503
0.41553851381374185
0.514987562112089
0.51
0.41000000000000003
0.31000000000000005
0.20999999999999996
0.10999999999999999
0.010000000000000009
-0.09000000000000008
-0.19000000000000006
-0.29000000000000004
-0.39
-0.49
-0.3899999999999999
-0.2899999999999998
-0.18999999999999995
-0.08999999999999986
0.010000000000000009
0.1100000000000001
0.2100000000000002
0.31000000000000005
0.41000000000000014
0.51
0.514987562112089
0.41553851381374174
0.31622577482985503
0.21710678118654747
0.11827625302982192
0.019901951359278525
-0.07768943743823403
-0.1737722339831621
-0.26639320225002106
-0.34857864376269043
-0.3899999999999999
-0.3485786437626903
-0.26639320225002083
-0.173772233983162
-0.07768943743823381
0.019901951359278525
0.11827625302982203
0.2171067811865478
0.31622577482985503
0.41553851381374185
0.514987562112089
0.529803902718557
0.43195444572928876
0.33462112512353226
0.23801098892805184
0.1424555320336759
0.048516480713450494
-0.04278640450004206
-0.12944487245360103
-0.20715728752538093
-0.2663932022500209
-0.2899999999999998
-0.26639320225002083
-0.2071572875253807
-0.12944487245360092
-0.04278640450004184
0.048516480713450494
0.142455532033676
0.23801098892805206
0.33462112512353226
0.43195444572928887
0.529803902718557
0.5540306508910551
0.4586832980505139
0.3644003745317532
0.2715773105863908
0.18082039324993693
0.0930951894845301
0.009999999999999953
-0.06573593128807148
-0.12944487245360103
-0.17377223398316205
-0.18999999999999995
-0.173772233983162
-0.12944487245360092
-0.06573593128807143
0.01000000000000012
0.0930951894845301
0.18082039324993704
0.271577310586391
0.3644003745317532
0.458683298050514
0.5540306508910551
0.587032961426901
0.4948857801796106
0.4044271909999161
0.31622577482985503
0.23111025509279792
0.15031242374328502
0.07568542494923813
0.010000000000000009
-0.04278640450004195
-0.07768943743823381
-0.08999999999999986
-0.07768943743823381
-0.04278640450004184
0.01000000000000012
0.07568542494923824
0.15031242374328502
0.23111025509279803
0.31622577482985514
0.4044271909999161
0.4948857801796107
0.587032961426901
0.6280339887498949
0.5395630140987
0.4533981132056605
0.37023252670426265
0.29102496759066543
0.21710678118654758
0.1503124237432848
0.09309518948453
0.04851648071345038
0.019901951359278525
0.010000000000000009
0.019901951359278525
0.048516480713450494
0.0930951894845301
0.15031242374328502
0.21710678118654758
0.29102496759066554
0.37023252670426277
0.4533981132056605
0.5395630140987002
0.6280339887498949
0.6761903789690602
0.5916653826391969
0.51
0.43195444572928876
0.35852813742385714
0.29102496759066554
0.23111025509279792
0.18082039324993693
0.1424555320336759
0.11827625302982203
0.1100000000000001
0.11827625302982203
0.142455532033676
0.18082039324993704
0.23111025509279803
0.29102496759066554
0.35852813742385714
0.43195444572928887
0.51
0.5916653826391969
0.6761903789690602
0.7306555615733703
0.6501754250991381
0.573014581273465
0.4999494936611667
0.43195444572928887
0.37023252670426277
0.31622577482985503
0.271577310586391
0.23801098892805206
0.2171067811865477
0.2100000000000002
0.2171067811865478
0.23801098892805206
0.271577310586391
0.31622577482985514
0.37023252670426277
0.43195444572928887
0.4999494936611668
0.573014581273465
0.6501754250991383
0.7306555615733703
0.7906248474865698
0.7141594578792296
0.6413708498984763
0.573014581273465
0.51
0.4533981132056605
0.40442719099991586
0.3644003745317532
0.33462112512353226
0.31622577482985503
0.31000000000000005
0.31622577482985503
0.33462112512353226
0.3644003745317532
0.4044271909999161
0.4533981132056605
0.51
0.573014581273465
0.6413708498984763
0.7141594578792296
0.7906248474865698
0.8553624047073711
0.7827922061357857
0.7141594578792296
0.6501754250991381
0.5916653826391969
0.5395630140987002
0.4948857801796106
0.4586832980505139
0.43195444572928887
0.41553851381374185
0.41000000000000014
0.41553851381374185
0.43195444572928887
0.458683298050514
0.4948857801796107
0.5395630140987002
0.5916653826391969
0.6501754250991383
0.7141594578792296
0.7827922061357857
0.8553624047073711
0.9242135623730952
0.8553624047073711
0.7906248474865698
0.7306555615733703
0.67619037896906
0.6280339887498949
0.5870329614269008
0.5540306508910549
0.529803902718557
0.514987562112089
0.51
0.514987562112089
0.529803902718557
0.5540306508910551
0.587032961426901
0.6280339887498949
0.6761903789690602
0.7306555615733703
0.7906248474865698
0.8553624047073711
0.9242135623730952

