# vtk DataFile Version 4.1
Header:
ASCII

DATASET UNSTRUCTURED_GRID
POINTS 1600 double
-0.975 -0.9749999999999999 0.0
-0.9750000000000001 -0.925 0.0
-0.9749999999999999 -0.8749999999999999 0.0
-0.975 -0.825 0.0
-0.975 -0.7749999999999999 0.0
-0.9749999999999999 -0.725 0.0
-0.9749999999999999 -0.6749999999999999 0.0
-0.9749999999999999 -0.6249999999999999 0.0
-0.975 -0.575 0.0
-0.975 -0.5249999999999999 0.0
-0.925 -0.975 0.0
-0.9249999999999998 -0.9249999999999998 0.0
-0.925 -0.875 0.0
-0.9249999999999998 -0.825 0.0
-0.925 -0.7750000000000001 0.0
-0.925 -0.7250000000000001 0.0
-0.925 -0.675 0.0
-0.9249999999999998 -0.625 0.0
-0.925 -0.575 0.0
-0.925 -0.525 0.0
-0.8749999999999999 -0.975 0.0
-0.875 -0.925 0.0
-0.875 -0.875 0.0
-0.8749999999999998 -0.8249999999999998 0.0
-0.8750000000000001 -0.7750000000000001 0.0
-0.875 -0.7250000000000001 0.0
-0.875 -0.6749999999999999 0.0
-0.875 -0.625 0.0
-0.875 -0.575 0.0
-0.8749999999999999 -0.5249999999999999 0.0
-0.825 -0.975 0.0
-0.825 -0.9249999999999998 0.0
-0.8249999999999998 -0.875 0.0
-0.825 -0.825 0.0
-0.825 -0.775 0.0
-0.825 -0.725 0.0
-0.825 -0.6749999999999999 0.0
-0.8249999999999998 -0.625 0.0
-0.825 -0.575 0.0
-0.825 -0.5249999999999999 0.0
-0.7749999999999999 -0.975 0.0
-0.7750000000000001 -0.9250000000000002 0.0
-0.7750000000000001 -0.875 0.0
-0.7749999999999999 -0.825 0.0
-0.7750000000000001 -0.7750000000000001 0.0
-0.7750000000000001 -0.7250000000000001 0.0
-0.7750000000000001 -0.675 0.0
-0.775 -0.625 0.0
-0.7750000000000001 -0.5750000000000001 0.0
-0.7749999999999999 -0.5249999999999999 0.0
-0.725 -0.975 0.0
-0.725 -0.9250000000000002 0.0
-0.7250000000000001 -0.875 0.0
-0.7250000000000001 -0.825 0.0
-0.7250000000000001 -0.7750000000000001 0.0
-0.7250000000000001 -0.7250000000000001 0.0
-0.7250000000000001 -0.675 0.0
-0.725 -0.625 0.0
-0.7250000000000001 -0.5750000000000001 0.0
-0.725 -0.5249999999999999 0.0
-0.6749999999999998 -0.975 0.0
-0.675 -0.9250000000000002 0.0
-0.675 -0.875 0.0
-0.6749999999999999 -0.825 0.0
-0.675 -0.775 0.0
-0.675 -0.7250000000000001 0.0
-0.675 -0.675 0.0
-0.6749999999999999 -0.625 0.0
-0.675 -0.5750000000000001 0.0
-0.6749999999999999 -0.5249999999999999 0.0
-0.6249999999999999 -0.9749999999999999 0.0
-0.6249999999999999 -0.9249999999999999 0.0
-0.625 -0.875 0.0
-0.6249999999999999 -0.8249999999999998 0.0
-0.6249999999999999 -0.775 0.0
-0.625 -0.725 0.0
-0.625 -0.675 0.0
-0.6249999999999999 -0.6249999999999999 0.0
-0.625 -0.575 0.0
-0.6249999999999999 -0.5249999999999999 0.0
-0.5749999999999998 -0.975 0.0
-0.575 -0.9249999999999999 0.0
-0.5750000000000001 -0.875 0.0
-0.575 -0.825 0.0
-0.5750000000000001 -0.775 0.0
-0.5750000000000001 -0.7250000000000001 0.0
-0.5750000000000001 -0.675 0.0
-0.575 -0.625 0.0
-0.5750000000000001 -0.575 0.0
-0.575 -0.5249999999999999 0.0
-0.5249999999999999 -0.9749999999999999 0.0
-0.5249999999999999 -0.925 0.0
-0.5249999999999999 -0.8749999999999999 0.0
-0.5249999999999999 -0.825 0.0
-0.5249999999999999 -0.7749999999999999 0.0
-0.5249999999999999 -0.725 0.0
-0.5249999999999999 -0.6749999999999999 0.0
-0.5249999999999999 -0.6249999999999999 0.0
-0.525 -0.575 0.0
-0.5249999999999999 -0.5249999999999999 0.0
-0.475 -0.9749999999999999 0.0
-0.475 -0.925 0.0
-0.475 -0.8749999999999999 0.0
-0.475 -0.825 0.0
-0.475 -0.7749999999999999 0.0
-0.475 -0.725 0.0
-0.475 -0.6749999999999999 0.0
-0.4749999999999999 -0.6249999999999999 0.0
-0.475 -0.575 0.0
-0.475 -0.5249999999999999 0.0
-0.425 -0.975 0.0
-0.42499999999999993 -0.9249999999999998 0.0
-0.425 -0.875 0.0
-0.42499999999999993 -0.825 0.0
-0.42500000000000004 -0.7750000000000001 0.0
-0.42500000000000004 -0.7250000000000001 0.0
-0.42500000000000004 -0.675 0.0
-0.42499999999999993 -0.625 0.0
-0.425 -0.575 0.0
-0.425 -0.525 0.0
-0.37499999999999994 -0.975 0.0
-0.375 -0.925 0.0
-0.375 -0.875 0.0
-0.375 -0.8249999999999998 0.0
-0.375 -0.7750000000000001 0.0
-0.375 -0.7250000000000001 0.0
-0.375 -0.6749999999999999 0.0
-0.375 -0.625 0.0
-0.375 -0.575 0.0
-0.37499999999999994 -0.5249999999999999 0.0
-0.32499999999999996 -0.975 0.0
-0.32499999999999996 -0.9249999999999998 0.0
-0.32499999999999996 -0.875 0.0
-0.32499999999999996 -0.825 0.0
-0.32499999999999996 -0.775 0.0
-0.32499999999999996 -0.725 0.0
-0.32499999999999996 -0.6749999999999999 0.0
-0.32499999999999996 -0.625 0.0
-0.32499999999999996 -0.575 0.0
-0.32499999999999996 -0.5249999999999999 0.0
-0.27499999999999997 -0.975 0.0
-0.275 -0.9250000000000002 0.0
-0.275 -0.875 0.0
-0.275 -0.825 0.0
-0.275 -0.7750000000000001 0.0
-0.275 -0.7250000000000001 0.0
-0.275 -0.675 0.0
-0.275 -0.625 0.0
-0.275 -0.5750000000000001 0.0
-0.27499999999999997 -0.5249999999999999 0.0
-0.225 -0.975 0.0
-0.225 -0.9250000000000002 0.0
-0.225 -0.875 0.0
-0.225 -0.825 0.0
-0.22500000000000003 -0.7750000000000001 0.0
-0.22500000000000003 -0.7250000000000001 0.0
-0.22500000000000003 -0.675 0.0
-0.225 -0.625 0.0
-0.22500000000000003 -0.5750000000000001 0.0
-0.225 -0.5249999999999999 0.0
-0.17499999999999996 -0.975 0.0
-0.17499999999999996 -0.9250000000000002 0.0
-0.17499999999999996 -0.875 0.0
-0.17499999999999996 -0.825 0.0
-0.175 -0.775 0.0
-0.175 -0.7250000000000001 0.0
-0.175 -0.675 0.0
-0.17499999999999996 -0.625 0.0
-0.175 -0.5750000000000001 0.0
-0.17499999999999996 -0.5249999999999999 0.0
-0.12499999999999996 -0.9749999999999999 0.0
-0.12499999999999997 -0.9249999999999999 0.0
-0.12499999999999997 -0.875 0.0
-0.12499999999999997 -0.8249999999999998 0.0
-0.12499999999999997 -0.775 0.0
-0.12499999999999997 -0.725 0.0
-0.12499999999999999 -0.675 0.0
-0.12499999999999996 -0.6249999999999999 0.0
-0.12499999999999997 -0.575 0.0
-0.12499999999999996 -0.5249999999999999 0.0
-0.07499999999999998 -0.975 0.0
-0.07499999999999998 -0.9249999999999999 0.0
-0.07499999999999998 -0.875 0.0
-0.07499999999999998 -0.825 0.0
-0.07499999999999998 -0.775 0.0
-0.07499999999999998 -0.7250000000000001 0.0
-0.07499999999999998 -0.675 0.0
-0.07499999999999998 -0.625 0.0
-0.07499999999999998 -0.575 0.0
-0.07499999999999998 -0.5249999999999999 0.0
-0.024999999999999994 -0.9749999999999999 0.0
-0.024999999999999994 -0.925 0.0
-0.024999999999999994 -0.8749999999999999 0.0
-0.024999999999999994 -0.825 0.0
-0.024999999999999994 -0.7749999999999999 0.0
-0.024999999999999994 -0.725 0.0
-0.024999999999999994 -0.6749999999999999 0.0
-0.024999999999999994 -0.6249999999999999 0.0
-0.024999999999999994 -0.575 0.0
-0.024999999999999994 -0.5249999999999999 0.0
0.024999999999999994 -0.9749999999999999 0.0
0.024999999999999994 -0.925 0.0
0.024999999999999994 -0.8749999999999999 0.0
0.024999999999999994 -0.825 0.0
0.024999999999999994 -0.7749999999999999 0.0
0.024999999999999994 -0.725 0.0
0.024999999999999994 -0.6749999999999999 0.0
0.024999999999999994 -0.6249999999999999 0.0
0.024999999999999994 -0.575 0.0
0.024999999999999994 -0.5249999999999999 0.0
0.07500000000000001 -0.975 0.0
0.07500000000000001 -0.9249999999999998 0.0
0.07500000000000001 -0.875 0.0
0.07500000000000001 -0.825 0.0
0.07500000000000001 -0.7750000000000001 0.0
0.07500000000000001 -0.7250000000000001 0.0
0.07500000000000001 -0.675 0.0
0.07500000000000001 -0.625 0.0
0.07500000000000001 -0.575 0.0
0.07500000000000001 -0.525 0.0
0.125 -0.975 0.0
0.125 -0.925 0.0
0.125 -0.875 0.0
0.125 -0.8249999999999998 0.0
0.125 -0.7750000000000001 0.0
0.125 -0.7250000000000001 0.0
0.125 -0.6749999999999999 0.0
0.125 -0.625 0.0
0.125 -0.575 0.0
0.125 -0.5249999999999999 0.0
0.17500000000000002 -0.975 0.0
0.17500000000000002 -0.9249999999999998 0.0
0.17500000000000002 -0.875 0.0
0.175 -0.825 0.0
0.17500000000000004 -0.775 0.0
0.17500000000000004 -0.725 0.0
0.17500000000000002 -0.6749999999999999 0.0
0.175 -0.625 0.0
0.17500000000000002 -0.575 0.0
0.17500000000000002 -0.5249999999999999 0.0
0.225 -0.975 0.0
0.225 -0.9250000000000002 0.0
0.225 -0.875 0.0
0.225 -0.825 0.0
0.22500000000000003 -0.7750000000000001 0.0
0.22500000000000003 -0.7250000000000001 0.0
0.22500000000000003 -0.675 0.0
0.225 -0.625 0.0
0.22500000000000003 -0.5750000000000001 0.0
0.225 -0.5249999999999999 0.0
0.27499999999999997 -0.975 0.0
0.275 -0.9250000000000002 0.0
0.275 -0.875 0.0
0.275 -0.825 0.0
0.275 -0.7750000000000001 0.0
0.275 -0.7250000000000001 0.0
0.275 -0.675 0.0
0.275 -0.625 0.0
0.275 -0.5750000000000001 0.0
0.27499999999999997 -0.5249999999999999 0.0
0.325 -0.975 0.0
0.32500000000000007 -0.9250000000000002 0.0
0.32500000000000007 -0.875 0.0
0.32500000000000007 -0.825 0.0
0.32500000000000007 -0.775 0.0
0.32500000000000007 -0.7250000000000001 0.0
0.32500000000000007 -0.675 0.0
0.32500000000000007 -0.625 0.0
0.3250000000000001 -0.5750000000000001 0.0
0.325 -0.5249999999999999 0.0
0.37499999999999994 -0.9749999999999999 0.0
0.375 -0.9249999999999999 0.0
0.375 -0.875 0.0
0.375 -0.8249999999999998 0.0
0.375 -0.775 0.0
0.375 -0.725 0.0
0.375 -0.675 0.0
0.375 -0.6249999999999999 0.0
0.375 -0.575 0.0
0.37499999999999994 -0.5249999999999999 0.0
0.425 -0.975 0.0
0.42500000000000004 -0.9249999999999999 0.0
0.42500000000000004 -0.875 0.0
0.42500000000000004 -0.825 0.0
0.42500000000000004 -0.775 0.0
0.42500000000000004 -0.7250000000000001 0.0
0.4250000000000001 -0.675 0.0
0.42500000000000004 -0.625 0.0
0.42500000000000004 -0.575 0.0
0.425 -0.5249999999999999 0.0
0.475 -0.9749999999999999 0.0
0.475 -0.925 0.0
0.475 -0.8749999999999999 0.0
0.475 -0.825 0.0
0.475 -0.7749999999999999 0.0
0.475 -0.725 0.0
0.475 -0.6749999999999999 0.0
0.4749999999999999 -0.6249999999999999 0.0
0.475 -0.575 0.0
0.475 -0.5249999999999999 0.0
0.5249999999999999 -0.9749999999999999 0.0
0.525 -0.925 0.0
0.5249999999999999 -0.8749999999999999 0.0
0.5249999999999999 -0.825 0.0
0.5249999999999999 -0.7749999999999999 0.0
0.5249999999999999 -0.725 0.0
0.5249999999999999 -0.6749999999999999 0.0
0.5249999999999999 -0.6249999999999999 0.0
0.5249999999999999 -0.575 0.0
0.5249999999999999 -0.5249999999999999 0.0
0.575 -0.975 0.0
0.575 -0.9249999999999998 0.0
0.575 -0.875 0.0
0.575 -0.825 0.0
0.5750000000000001 -0.7750000000000001 0.0
0.5750000000000001 -0.7250000000000001 0.0
[...]
POINT_DATA 1600
SCALARS level_set double 1
LOOKUP_TABLE default
0.8895555434836169
0.8546650845375221
0.8207920163195398
0.7879363388296698
0.7562652569272541
0.7257787706122929
0.6966664280627577
0.6689282292786487
0.6427734086867196
0.6182019662869707
0.8546650845375221
0.8188448653649619
0.7840200181542775
0.7501905429054689
0.7175307187652226
0.6860405457335382
0.6559207523436876
0.6271713385956709
0.6000176632316215
0.5744597262515396
0.8207920163195397
0.7840200181542776
0.7482160907747452
0.7133802341809425
0.679693032948711
0.6471544870780501
0.6159761698518892
0.5861580812702281
0.5579422249534082
0.5313286009014295
0.7879363388296698
0.7501905429054689
0.7133802341809425
0.6775054126560907
0.6427521994777193
0.6091205946458287
0.5768326805873623
0.5458884573023202
0.5165470938520794
0.48880859023664003
0.7562652569272542
0.7175307187652226
0.679693032948711
0.6427521994777193
0.6068984143992652
0.5721316777133487
0.5386833848858733
0.5065535359168392
0.4760181377193194
0.44707719029331383
0.7257787706122929
0.6860405457335382
0.6471544870780501
0.6091205946458287
0.5721316777133487
0.5361877362806102
0.5015282827474224
0.4681533171137851
0.4363553565551279
0.4061344010714507
0.6966664280627577
0.6559207523436876
0.6159761698518893
0.5768326805873623
0.5386833848858733
0.5015282827474223
0.4656125159218804
0.43093608440924724
0.3978060607211638
0.36622244485763017
0.6689282292786487
0.627171338595671
0.5861580812702281
0.5458884573023202
0.5065535359168393
0.46815331711378516
0.43093608440924724
0.3949018378032257
0.36037025021742736
0.3273413216518523
0.6427734086867196
0.6000176632316215
0.5579422249534082
0.5165470938520795
0.4760181377193194
0.4363553565551279
0.39780606072116387
0.3603702502174274
0.3243756139715784
0.28982215198361677
0.6182019662869707
0.5744597262515396
0.5313286009014295
0.48880859023664003
0.44707719029331383
0.4061344010714507
0.36622244485763017
0.3273413216518523
0.28982215198361677
0.25366493585292366
0.5954362253440917
0.5507412121939823
0.5065841248777518
0.46296496339540016
0.42004924667458343
0.37783697471530164
0.33655970141829517
0.2962174267835641
0.2571367650560819
0.21931771623584856
0.5744761858580827
0.5288621210589495
0.48370879688237517
0.4390162133283597
0.39493430686312825
0.3514630774866806
0.3088178304031588
0.26699856561256274
0.22631945318897365
0.18678049313239156
0.5555455777565386
0.509071965683737
0.46298149145622103
0.41727415507399046
0.37208127985440365
0.3274028657974605
0.2834321914847623
0.24016925691630914
0.19790537101871097
0.15664053379196774
0.5386444010394592
0.4913707460683451
0.44440220859928947
0.39773878863229234
0.3514901656484096
0.3056563396476411
0.26040278466310557
0.2157295006948033
0.17189451854529378
0.12889783821457704
0.5239807441284996
0.4759943046896382
0.4282397042725802
0.3807169428773254
0.33351310417772495
0.286628188173779
0.24019659211532238
0.19421831600235523
0.14890951153234377
0.10427017870528799
0.5115546070236598
0.4629426415476166
0.4144939784760931
0.36620861780908937
0.3181500954423498
0.2703184113758742
0.22281361384141263
0.17563570283896496
0.12895034997986093
0.0827575552641005
0.5015374788628055
0.4524128014545365
0.4033934189503297
0.35447933135018517
0.3057129499107536
0.257094274632035
0.2086913808151848
0.16050426846020316
0.11264874630576115
0.06512481435185864
0.49392935964593665
0.4444047844103979
0.39493802569528996
0.34552908350061284
0.29620166758293665
0.24695577794226126
0.19782989303663895
0.14882401286606992
0.10000470051004444
0.05137195596856247
0.48884397502812665
0.43905058191624635
0.3892827468008276
0.33954046968187
0.2898345198142711
0.24016489719803075
0.1905493618605245
0.14098791380175246
0.09151200820913954
0.04212164508268578
0.4862813250093755
0.4363501939720822
0.3864275822669425
0.3365134898939567
0.2866115066047571
0.23672163239934357
0.18684978728684146
0.1369959712672508
0.08717066940304652
0.037373881694228596
0.4862813250093755
0.4363501939720822
0.3864275822669425
0.3365134898939567
0.28661150660475704
0.23672163239934357
0.18684978728684146
0.1369959712672508
0.0871706694030465
0.037373881694228596
0.48884397502812665
0.43905058191624635
0.38928274680082753
0.33954046968187007
0.2898345198142711
0.24016489719803075
0.1905493618605245
0.14098791380175246
0.09151200820913956
0.04212164508268578
0.4939293596459366
0.4444047844103979
0.3949380256952899
0.34552908350061284
0.29620166758293665
0.24695577794226126
0.19782989303663898
0.14882401286606994
0.10000470051004445
0.05137195596856249
0.5015374788628055
0.45241280145453655
0.4033934189503297
0.35447933135018517
0.3057129499107537
0.2570942746320351
0.20869138081518485
0.16050426846020321
0.11264874630576119
0.06512481435185873
0.51155460702366
0.46294264154761666
0.41449397847609315
0.3662086178090894
0.3181500954423498
0.2703184113758743
0.22281361384141268
0.175635702838965
0.12895034997986096
0.08275755526410059
0.5239807441284998
0.4759943046896383
0.4282397042725802
0.3807169428773253
0.33351310417772495
0.28662818817377905
0.2401965921153224
0.19421831600235526
0.1489095115323438
0.10427017870528807
0.5386444010394594
0.4913707460683452
0.44440220859928947
0.39773878863229245
0.3514901656484097
0.30565633964764116
0.2604027846631057
0.21572950069480334
0.17189451854529386
0.1288978382145772
0.5555455777565388
0.5090719656837372
0.4629814914562212
0.4172741550739906
0.37208127985440387
0.3274028657974606
0.28343219148476234
0.24016925691630922
0.1979053710187111
0.15664053379196793
0.5744761858580829
0.5288621210589496
0.4837087968823753
0.4390162133283599
0.39493430686312836
0.35146307748668076
0.30881783040315886
0.26699856561256285
0.22631945318897376
0.1867804931323917
0.5954362253440917
0.5507412121939823
0.5065841248777518
0.46296496339540016
0.4200492466745835
0.37783697471530164
0.33655970141829517
0.2962174267835641
0.2571367650560819
0.21931771623584861
0.6182019662869708
0.5744597262515397
0.5313286009014295
0.4888085902366401
0.44707719029331383
0.4061344010714507
0.36622244485763017
0.3273413216518523
0.2898221519836168
0.25366493585292366
0.6427734086867198
0.6000176632316218
0.5579422249534082
0.5165470938520795
0.4760181377193194
0.43635535655512797
0.3978060607211639
0.36037025021742747
0.32437561397157844
0.2898221519836168
0.6689282292786489
0.627171338595671
0.5861580812702282
0.5458884573023203
0.5065535359168393
0.46815331711378527
0.4309360844092474
0.39490183780322585
0.3603702502174275
0.3273413216518524
0.6966664280627578
0.6559207523436879
0.6159761698518894
0.5768326805873623
0.5386833848858735
0.5015282827474227
0.46561251592188063
0.43093608440924747
0.3978060607211641
0.36622244485763034
0.7257787706122929
0.6860405457335383
0.6471544870780502
0.6091205946458287
0.5721316777133487
0.5361877362806104
0.5015282827474226
0.4681533171137854
0.436355356555128
0.4061344010714508
0.7562652569272541
0.7175307187652225
0.679693032948711
0.6427521994777194
0.6068984143992652
0.5721316777133487
0.5386833848858733
0.5065535359168393
0.47601813771931945
0.44707719029331383
0.7879363388296698
0.7501905429054689
0.7133802341809427
0.6775054126560905
0.6427521994777193
0.6091205946458287
0.5768326805873623
0.5458884573023203
0.5165470938520795
0.48880859023664014
0.8207920163195398
0.7840200181542778
0.7482160907747453
0.7133802341809427
0.679693032948711
0.6471544870780502
0.6159761698518892
0.5861580812702282
0.5579422249534084
0.5313286009014296
0.8546650845375221
0.818844865364962
0.7840200181542777
0.750190542905469
0.7175307187652225
0.6860405457335382
0.6559207523436877
0.6271713385956711
0.6000176632316216
0.5744597262515398
0.8895555434836169
0.8546650845375221
0.8207920163195398
0.7879363388296698
0.7562652569272541
0.7257787706122929
0.6966664280627577
0.6689282292786487
0.6427734086867197
0.6182019662869707
0.5954362253440917
0.5744761858580827
0.5555455777565386
0.5386444010394592
0.5239807441284997
0.5115546070236598
0.5015374788628055
0.49392935964593665
0.48884397502812665
0.48628132500937554
0.5507412121939824
0.5288621210589495
0.509071965683737
0.4913707460683451
0.4759943046896382
0.46294264154761666
0.4524128014545365
0.4444047844103979
0.43905058191624635
0.4363501939720822
0.5065841248777518
0.48370879688237517
0.46298149145622103
0.44440220859928947
0.4282397042725802
0.41449397847609315
0.4033934189503297
0.39493802569529
0.38928274680082753
0.3864275822669425
0.46296496339540016
0.4390162133283598
0.4172741550739905
0.3977387886322924
0.3807169428773253
0.36620861780908937
0.35447933135018517
0.34552908350061284
0.33954046968187
0.3365134898939567
0.42004924667458343
0.39493430686312825
0.37208127985440365
0.3514901656484096
0.33351310417772495
0.31815009544234973
0.3057129499107536
0.29620166758293665
0.2898345198142711
0.2866115066047571
0.37783697471530164
0.3514630774866806
0.3274028657974604
0.3056563396476411
0.28662818817377905
0.2703184113758742
0.25709427463203494
0.24695577794226123
0.24016489719803077
0.23672163239934357
0.33655970141829517
0.3088178304031588
0.2834321914847623
0.26040278466310557
0.2401965921153224
0.22281361384141263
0.2086913808151848
0.19782989303663895
0.1905493618605245
0.18684978728684146
0.2962174267835641
0.26699856561256274
0.24016925691630917
0.2157295006948033
0.19421831600235523
0.17563570283896496
0.16050426846020316
0.14882401286606992
0.14098791380175246
0.1369959712672508
0.25713676505608185
0.22631945318897365
0.19790537101871097
0.17189451854529378
0.14890951153234377
0.12895034997986093
0.11264874630576115
0.10000470051004443
0.09151200820913954
0.08717066940304652
0.21931771623584853
0.18678049313239156
0.1566405337919677
0.12889783821457707
0.10427017870528799
0.0827575552641005
0.06512481435185864
0.05137195596856246
0.04212164508268578
0.037373881694228596
0.18322006238049218
0.14884380349001278
0.11682210356192917
0.08715496259624136
0.06066373393756741
0.037348417585907304
0.018144095597533015
0.0030507679724445947
-0.007121921880074714
-0.012373973960024914
0.14884380349001278
0.11250938426183735
0.07845008032859534
0.04666589169028671
0.018090177229182058
-0.007277063054718671
-0.028293409957215764
-0.04495886347830919
-0.05621869267914193
-0.06207289755971401
0.11682210356192918
0.07845008032859532
0.04221455582844181
0.008115530061468607
-0.02281324248862146
-0.05057176182182843
-0.07376580025994048
-0.09239535780295755
-0.10503260243084957
-0.11167753414361657
0.08715496259624136
0.046665891690286704
0.008115530061468607
-0.028496122290212974
-0.06204652521584316
-0.09253567871542201
-0.11827307531064112
-0.13925871500150047
-0.15356365113519765
-0.16118788371173262
0.06066373393756742
0.018090177229182058
-0.02281324248862146
-0.06204652521584317
-0.09846561898997702
-0.13207052381102308
-0.16088660117862882
-0.18491385109279423
-0.2014456070374077
-0.21048186901246924
0.0373484175859073
-0.007277063054718671
-0.05057176182182843
-0.09253567871542201
-0.13207052381102308
-0.16917629710863175
-0.20160637786390367
-0.2293607660768388
-0.24867847013747976
-0.2595594900458266
0.018144095597533015
-0.028293409957215764
-0.07376580025994048
-0.1182730753106411
-0.16088660117862882
-0.20160637786390367
-0.23820959031195296
-0.27069623852277663
-0.29395467197114133
-0.30798489065704715
0.003050767972444595
-0.044958863478309186
-0.09239535780295755
-0.13925871500150047
-0.18491385109279423
-0.2293607660768388
-0.27069623852277663
-0.3089202684306077
-0.33727421253839246
-0.35575807084613087
-0.007121921880074714
-0.05621869267914193
-0.10503260243084957
-0.15356365113519765
-0.2014456070374077
-0.24867847013747976
-0.29395467197114133
-0.3372742125383924
-0.37295048711651346
-0.4009834957055045
-0.012373973960024914
-0.06207289755971401
-0.11167753414361659
-0.16118788371173262
-0.21048186901246924
-0.2595594900458266
-0.30798489065704715
-0.35575807084613087
-0.40098349570550446
-0.4436611652351682
-0.012373973960024914
-0.06207289755971401
-0.11167753414361659
-0.1611878837117326
-0.21048186901246924
-0.2595594900458266
-0.30798489065704715
-0.35575807084613087
-0.4009834957055044
-0.44366116523516813
-0.007121921880074714
-0.05621869267914193
-0.10503260243084955
-0.1535636511351976
-0.20144560703740766
-0.24867847013747973
-0.29395467197114133
-0.3372742125383924
-0.37295048711651335
-0.40098349570550434
0.0030507679724446277
-0.044958863478309144
-0.09239535780295749
-0.13925871500150042
-0.18491385109279415
-0.22936076607683872
-0.2706962385227766
-0.3089202684306076
-0.3372742125383923
-0.35575807084613065
0.01814409559753312
-0.028293409957215663
-0.07376580025994037
-0.118273075310641
-0.16088660117862874
-0.20160637786390356
-0.23820959031195282
-0.27069623852277647
-0.29395467197114117
-0.30798489065704693
0.037348417585907415
-0.00727706305471857
-0.050571761821828334
-0.0925356787154219
-0.13207052381102297
-0.16917629710863163
-0.2016063778639035
-0.22936076607683867
-0.24867847013747962
-0.25955949004582646
0.06066373393756751
0.018090177229182137
-0.02281324248862138
-0.062046525215843064
-0.0984656189899769
-0.13207052381102297
-0.1608866011786287
-0.18491385109279412
-0.20144560703740755
-0.21048186901246912
0.08715496259624152
0.04666589169028686
0.008115530061468753
-0.02849612229021281
-0.06204652521584299
-0.09253567871542182
-0.11827307531064091
-0.13925871500150028
-0.15356365113519743
-0.1611878837117324
0.11682210356192939
0.07845008032859552
0.04221455582844199
0.00811553006146875
-0.02281324248862131
-0.050571761821828244
-0.07376580025994026
-0.09239535780295732
-0.10503260243084934
-0.11167753414361636
0.14884380349001294
0.11250938426183751
0.07845008032859548
0.046665891690286815
0.018090177229182162
-0.007277063054718525
-0.028293409957215597
-0.044958863478309026
-0.056218692679141764
-0.06207289755971385
0.18322006238049224
0.14884380349001286
0.11682210356192924
0.0871549625962414
0.06066373393756745
0.037348417585907345
0.01814409559753307
0.0030507679724446485
-0.007121921880074659
-0.012373973960024858
0.21931771623584856
0.1867804931323916
0.15664053379196774
0.12889783821457707
0.10427017870528797
0.0827575552641005
0.06512481435185866
0.05137195596856249
0.04212164508268581
0.037373881694228624
0.2571367650560819
0.22631945318897373
0.19790537101871103
0.1718945185452938
0.14890951153234377
0.12895034997986093
0.11264874630576117
0.10000470051004451
0.09151200820913963
0.08717066940304659
0.29621742678356416
0.26699856561256285
0.24016925691630925
0.21572950069480337
0.1942183160023553
0.17563570283896507
0.1605042684602033
0.14882401286607005
0.14098791380175263
0.13699597126725094
0.3365597014182953
0.30881783040315897
0.28343219148476245
0.26040278466310585
0.24019659211532265
0.2228136138414129
0.20869138081518507
0.19782989303663923
0.19054936186052476
0.18684978728684173
0.3778369747153017
0.3514630774866807
0.3274028657974606
0.3056563396476412
0.2866281881737792
0.2703184113758744
0.25709427463203516
0.24695577794226142
0.2401648971980309
0.23672163239934374
0.42004924667458343
0.39493430686312825
0.3720812798544037
0.3514901656484096
0.33351310417772506
0.31815009544234985
0.3057129499107537
0.2962016675829367
0.28983451981427116
0.2866115066047571
0.4629649633954002
0.43901621332835983
0.41727415507399057
0.39773878863229245
0.3807169428773254
0.3662086178090894
0.3544793313501853
0.3455290835006129
0.3395404696818701
0.3365134898939568
0.506584124877752
0.4837087968823753
0.4629814914562212
0.4444022085992895
0.4282397042725803
0.41449397847609326
0.4033934189503298
0.39493802569529
0.3892827468008277
0.3864275822669427
0.5507412121939824
0.5288621210589496
0.5090719656837371
0.4913707460683452
0.4759943046896383
0.4629426415476167
0.45241280145453655
0.444404784410398
0.43905058191624646
0.43635019397208225
0.5954362253440917
0.5744761858580827
0.5555455777565387
0.5386444010394593
0.5239807441284997
0.5115546070236598
0.5015374788628055
0.49392935964593665
0.48884397502812665
0.4862813250093756
0.48628132500937554
0.4888439750281266
0.49392935964593665
0.5015374788628055
0.5115546070236598
0.5239807441284998
0.5386444010394594
0.5555455777565388
0.5744761858580828
0.5954362253440917
0.4363501939720822
0.4390505819162464
0.4444047844103979
0.45241280145453655
0.4629426415476167
0.4759943046896383
0.49137074606834524
0.5090719656837372
0.5288621210589496
0.5507412121939823
0.38642758226694257
0.38928274680082753
0.3949380256952899
0.40339341895032976
0.41449397847609315
0.4282397042725802
0.44440220859928947
0.4629814914562212
0.4837087968823753
0.5065841248777518
0.3365134898939567
0.33954046968187
0.34552908350061284
0.3544793313501852
0.3662086178090894
0.3807169428773254
0.39773878863229245
0.4172741550739906
0.43901621332835983
0.46296496339540016
0.28661150660475704
0.2898345198142711
0.29620166758293665
0.3057129499107537
0.3181500954423498
0.333513104177725
0.3514901656484097
0.3720812798544038
0.3949343068631284
0.42004924667458354
0.2367216323993436
0.24016489719803075
0.24695577794226126
0.25709427463203505
0.2703184113758743
0.28662818817377905
0.3056563396476411
0.3274028657974606
0.35146307748668076
0.37783697471530164
0.18684978728684148
0.1905493618605245
0.19782989303663898
0.20869138081518485
0.22281361384141268
0.2401965921153224
0.2604027846631056
0.28343219148476234
0.30881783040315886
0.33655970141829517
0.1369959712672508
0.14098791380175246
0.14882401286606992
0.16050426846020321
0.17563570283896499
0.19421831600235526
0.21572950069480334
0.24016925691630922
0.2669985656125628
0.2962174267835641
0.08717066940304652
0.09151200820913954
0.10000470051004445
0.11264874630576119
0.12895034997986096
0.1489095115323438
0.17189451854529386
0.19790537101871108
0.22631945318897376
0.2571367650560819
0.037373881694228596
0.04212164508268578
0.05137195596856249
0.06512481435185874
0.08275755526410059
0.10427017870528807
0.1288978382145772
0.1566405337919679
0.18678049313239167
0.2193177162358486
-0.012373973960024914
-0.007121921880074714
0.0030507679724446277
0.018144095597533123
0.03734841758590741
0.060663733937567514
0.08715496259624153
0.11682210356192939
0.14884380349001294
0.18322006238049224
-0.06207289755971402
-0.05621869267914193
-0.04495886347830915
-0.028293409957215663
-0.00727706305471857
0.018090177229182137
0.046665891690286856
0.07845008032859553
0.11250938426183751
0.14884380349001283
-0.11167753414361657
-0.10503260243084955
-0.09239535780295748
-0.07376580025994037
-0.050571761821828334
-0.02281324248862138
0.008115530061468753
0.04221455582844199
0.07845008032859548
0.11682210356192924
-0.16118788371173262
-0.15356365113519763
-0.13925871500150042
-0.11827307531064099
-0.0925356787154219
-0.06204652521584306
-0.028496122290212807
0.00811553006146875
0.046665891690286815
0.0871549625962414
-0.21048186901246924
-0.20144560703740766
-0.18491385109279412
-0.1608866011786287
-0.13207052381102297
-0.0984656189899769
-0.06204652521584299
-0.02281324248862131
0.018090177229182162
0.06066373393756745
-0.2595594900458266
-0.24867847013747973
-0.22936076607683875
-0.20160637786390356
-0.16917629710863163
-0.13207052381102297
-0.09253567871542182
-0.050571761821828244
-0.007277063054718525
0.037348417585907345
-0.30798489065704715
-0.29395467197114133
-0.2706962385227766
-0.2382095903119528
-0.2016063778639035
-0.1608866011786287
-0.11827307531064092
-0.07376580025994026
-0.028293409957215604
0.01814409559753307
-0.3557580708461308
-0.33727421253839235
-0.3089202684306076
-0.27069623852277647
-0.22936076607683864
-0.1849138510927941
-0.13925871500150025
-0.09239535780295732
-0.044958863478309026
0.003050767972444652
-0.40098349570550446
-0.37295048711651335
-0.3372742125383923
-0.29395467197114117
-0.24867847013747962
-0.20144560703740755
-0.15356365113519743
-0.10503260243084936
-0.056218692679141764
-0.007121921880074659
-0.44366116523516813
-0.4009834957055044
-0.35575807084613065
-0.307984890657047
-0.25955949004582646
-0.21048186901246912
-0.1611878837117324
-0.11167753414361636
-0.062072897559713854
-0.012373973960024858
-0.44366116523516813
-0.40098349570550434
-0.35575807084613065
-0.30798489065704693
-0.25955949004582646