# vtk DataFile Version 4.1
Header:
ASCII

DATASET UNSTRUCTURED_GRID
POINTS 297 double
-0.6 -0.3999999999999999 -0.6
-0.3999999999999999 -0.3999999999999999 -0.6
-0.19999999999999996 -0.3999999999999999 -0.6
0 -0.3999999999999999 -0.6
-0.6 -0.19999999999999996 -0.6
-0.3999999999999999 -0.19999999999999996 -0.6
-0.19999999999999996 -0.19999999999999996 -0.6
0 -0.19999999999999996 -0.6
0.20000000000000018 -0.19999999999999996 -0.6
-0.6 0 -0.6
-0.3999999999999999 0 -0.6
-0.19999999999999996 0 -0.6
0 0 -0.6
0.20000000000000018 0 -0.6
-0.6 0.20000000000000018 -0.6
-0.3999999999999999 0.20000000000000018 -0.6
-0.19999999999999996 0.20000000000000018 -0.6
0 0.20000000000000018 -0.6
0.20000000000000018 0.20000000000000018 -0.6
-0.6 0.40000000000000013 -0.6
-0.3999999999999999 0.40000000000000013 -0.6
-0.19999999999999996 0.40000000000000013 -0.6
0 0.40000000000000013 -0.6
-0.6 -0.6 -0.3999999999999999
-0.3999999999999999 -0.6 -0.3999999999999999
-0.19999999999999996 -0.6 -0.3999999999999999
0 -0.6 -0.3999999999999999
-0.8 -0.3999999999999999 -0.3999999999999999
-0.6 -0.3999999999999999 -0.3999999999999999
-0.3999999999999999 -0.3999999999999999 -0.3999999999999999
-0.19999999999999996 -0.3999999999999999 -0.3999999999999999
0 -0.3999999999999999 -0.3999999999999999
0.20000000000000018 -0.3999999999999999 -0.3999999999999999
0.40000000000000013 -0.3999999999999999 -0.3999999999999999
0.6000000000000001 -0.3999999999999999 -0.3999999999999999
-0.8 -0.19999999999999996 -0.3999999999999999
-0.6 -0.19999999999999996 -0.3999999999999999
-0.3999999999999999 -0.19999999999999996 -0.3999999999999999
-0.19999999999999996 -0.19999999999999996 -0.3999999999999999
0 -0.19999999999999996 -0.3999999999999999
0.20000000000000018 -0.19999999999999996 -0.3999999999999999
0.40000000000000013 -0.19999999999999996 -0.3999999999999999
0.6000000000000001 -0.19999999999999996 -0.3999999999999999
-0.8 0 -0.3999999999999999
-0.6 0 -0.3999999999999999
-0.3999999999999999 0 -0.3999999999999999
-0.19999999999999996 0 -0.3999999999999999
0 0 -0.3999999999999999
0.20000000000000018 0 -0.3999999999999999
0.40000000000000013 0 -0.3999999999999999
0.6000000000000001 0 -0.3999999999999999
-0.8 0.20000000000000018 -0.3999999999999999
-0.6 0.20000000000000018 -0.3999999999999999
-0.3999999999999999 0.20000000000000018 -0.3999999999999999
-0.19999999999999996 0.20000000000000018 -0.3999999999999999
0 0.20000000000000018 -0.3999999999999999
0.20000000000000018 0.20000000000000018 -0.3999999999999999
0.40000000000000013 0.20000000000000018 -0.3999999999999999
0.6000000000000001 0.20000000000000018 -0.3999999999999999
-0.8 0.40000000000000013 -0.3999999999999999
-0.6 0.40000000000000013 -0.3999999999999999
-0.3999999999999999 0.40000000000000013 -0.3999999999999999
-0.19999999999999996 0.40000000000000013 -0.3999999999999999
0 0.40000000000000013 -0.3999999999999999
0.20000000000000018 0.40000000000000013 -0.3999999999999999
0.40000000000000013 0.40000000000000013 -0.3999999999999999
0.6000000000000001 0.40000000000000013 -0.3999999999999999
-0.6 0.6000000000000001 -0.3999999999999999
-0.3999999999999999 0.6000000000000001 -0.3999999999999999
-0.19999999999999996 0.6000000000000001 -0.3999999999999999
0 0.6000000000000001 -0.3999999999999999
-0.6 -0.6 -0.19999999999999996
-0.3999999999999999 -0.6 -0.19999999999999996
-0.19999999999999996 -0.6 -0.19999999999999996
0 -0.6 -0.19999999999999996
0.20000000000000018 -0.6 -0.19999999999999996
-0.8 -0.3999999999999999 -0.19999999999999996
-0.6 -0.3999999999999999 -0.19999999999999996
-0.3999999999999999 -0.3999999999999999 -0.19999999999999996
-0.19999999999999996 -0.3999999999999999 -0.19999999999999996
0 -0.3999999999999999 -0.19999999999999996
0.20000000000000018 -0.3999999999999999 -0.19999999999999996
0.40000000000000013 -0.3999999999999999 -0.19999999999999996
0.6000000000000001 -0.3999999999999999 -0.19999999999999996
-0.8 -0.19999999999999996 -0.19999999999999996
-0.6 -0.19999999999999996 -0.19999999999999996
-0.3999999999999999 -0.19999999999999996 -0.19999999999999996
-0.19999999999999996 -0.19999999999999996 -0.19999999999999996
0 -0.19999999999999996 -0.19999999999999996
0.20000000000000018 -0.19999999999999996 -0.19999999999999996
0.40000000000000013 -0.19999999999999996 -0.19999999999999996
0.6000000000000001 -0.19999999999999996 -0.19999999999999996
0.8 -0.19999999999999996 -0.19999999999999996
-0.8 0 -0.19999999999999996
-0.6 0 -0.19999999999999996
-0.3999999999999999 0 -0.19999999999999996
-0.19999999999999996 0 -0.19999999999999996
0 0 -0.19999999999999996
0.20000000000000018 0 -0.19999999999999996
0.40000000000000013 0 -0.19999999999999996
0.6000000000000001 0 -0.19999999999999996
0.8 0 -0.19999999999999996
-0.8 0.20000000000000018 -0.19999999999999996
-0.6 0.20000000000000018 -0.19999999999999996
-0.3999999999999999 0.20000000000000018 -0.19999999999999996
-0.19999999999999996 0.20000000000000018 -0.19999999999999996
0 0.20000000000000018 -0.19999999999999996
0.20000000000000018 0.20000000000000018 -0.19999999999999996
0.40000000000000013 0.20000000000000018 -0.19999999999999996
0.6000000000000001 0.20000000000000018 -0.19999999999999996
0.8 0.20000000000000018 -0.19999999999999996
-0.8 0.40000000000000013 -0.19999999999999996
-0.6 0.40000000000000013 -0.19999999999999996
-0.3999999999999999 0.40000000000000013 -0.19999999999999996
-0.19999999999999996 0.40000000000000013 -0.19999999999999996
0 0.40000000000000013 -0.19999999999999996
0.20000000000000018 0.40000000000000013 -0.19999999999999996
0.40000000000000013 0.40000000000000013 -0.19999999999999996
0.6000000000000001 0.40000000000000013 -0.19999999999999996
-0.6 0.6000000000000001 -0.19999999999999996
-0.3999999999999999 0.6000000000000001 -0.19999999999999996
-0.19999999999999996 0.6000000000000001 -0.19999999999999996
0 0.6000000000000001 -0.19999999999999996
0.20000000000000018 0.6000000000000001 -0.19999999999999996
-0.6 -0.6 0
-0.3999999999999999 -0.6 0
-0.19999999999999996 -0.6 0
0 -0.6 0
0.20000000000000018 -0.6 0
-0.8 -0.3999999999999999 0
-0.6 -0.3999999999999999 0
-0.3999999999999999 -0.3999999999999999 0
-0.19999999999999996 -0.3999999999999999 0
0 -0.3999999999999999 0
0.20000000000000018 -0.3999999999999999 0
0.40000000000000013 -0.3999999999999999 0
0.6000000000000001 -0.3999999999999999 0
-0.8 -0.19999999999999996 0
-0.6 -0.19999999999999996 0
-0.3999999999999999 -0.19999999999999996 0
-0.19999999999999996 -0.19999999999999996 0
0 -0.19999999999999996 0
0.20000000000000018 -0.19999999999999996 0
0.40000000000000013 -0.19999999999999996 0
0.6000000000000001 -0.19999999999999996 0
0.8 -0.19999999999999996 0
-0.8 0 0
-0.6 0 0
0.40000000000000013 0 0
0.6000000000000001 0 0
0.8 0 0
-0.8 0.20000000000000018 0
-0.6 0.20000000000000018 0
-0.3999999999999999 0.20000000000000018 0
-0.19999999999999996 0.20000000000000018 0
0 0.20000000000000018 0
0.20000000000000018 0.20000000000000018 0
0.40000000000000013 0.20000000000000018 0
0.6000000000000001 0.20000000000000018 0
0.8 0.20000000000000018 0
-0.8 0.40000000000000013 0
-0.6 0.40000000000000013 0
-0.3999999999999999 0.40000000000000013 0
-0.19999999999999996 0.40000000000000013 0
0 0.40000000000000013 0
0.20000000000000018 0.40000000000000013 0
0.40000000000000013 0.40000000000000013 0
0.6000000000000001 0.40000000000000013 0
-0.6 0.6000000000000001 0
-0.3999999999999999 0.6000000000000001 0
-0.19999999999999996 0.6000000000000001 0
0 0.6000000000000001 0
0.20000000000000018 0.6000000000000001 0
-0.6 -0.6 0.20000000000000018
-0.3999999999999999 -0.6 0.20000000000000018
-0.19999999999999996 -0.6 0.20000000000000018
0 -0.6 0.20000000000000018
0.20000000000000018 -0.6 0.20000000000000018
-0.8 -0.3999999999999999 0.20000000000000018
-0.6 -0.3999999999999999 0.20000000000000018
-0.3999999999999999 -0.3999999999999999 0.20000000000000018
-0.19999999999999996 -0.3999999999999999 0.20000000000000018
0 -0.3999999999999999 0.20000000000000018
0.20000000000000018 -0.3999999999999999 0.20000000000000018
0.40000000000000013 -0.3999999999999999 0.20000000000000018
0.6000000000000001 -0.3999999999999999 0.20000000000000018
-0.8 -0.19999999999999996 0.20000000000000018
-0.6 -0.19999999999999996 0.20000000000000018
-0.3999999999999999 -0.19999999999999996 0.20000000000000018
-0.19999999999999996 -0.19999999999999996 0.20000000000000018
0 -0.19999999999999996 0.20000000000000018
0.20000000000000018 -0.19999999999999996 0.20000000000000018
0.40000000000000013 -0.19999999999999996 0.20000000000000018
0.6000000000000001 -0.19999999999999996 0.20000000000000018
0.8 -0.19999999999999996 0.20000000000000018
-0.8 0 0.20000000000000018
-0.6 0 0.20000000000000018
-0.3999999999999999 0 0.20000000000000018
-0.19999999999999996 0 0.20000000000000018
0 0 0.20000000000000018
0.20000000000000018 0 0.20000000000000018
0.40000000000000013 0 0.20000000000000018
0.6000000000000001 0 0.20000000000000018
0.8 0 0.20000000000000018
-0.8 0.20000000000000018 0.20000000000000018
-0.6 0.20000000000000018 0.20000000000000018
-0.3999999999999999 0.20000000000000018 0.20000000000000018
-0.19999999999999996 0.20000000000000018 0.20000000000000018
0 0.20000000000000018 0.20000000000000018
0.20000000000000018 0.20000000000000018 0.20000000000000018
0.40000000000000013 0.20000000000000018 0.20000000000000018
0.6000000000000001 0.20000000000000018 0.20000000000000018
0.8 0.20000000000000018 0.20000000000000018
-0.8 0.40000000000000013 0.20000000000000018
-0.6 0.40000000000000013 0.20000000000000018
-0.3999999999999999 0.40000000000000013 0.20000000000000018
-0.19999999999999996 0.40000000000000013 0.20000000000000018
0 0.40000000000000013 0.20000000000000018
0.20000000000000018 0.40000000000000013 0.20000000000000018
0.40000000000000013 0.40000000000000013 0.20000000000000018
0.6000000000000001 0.40000000000000013 0.20000000000000018
-0.6 0.6000000000000001 0.20000000000000018
-0.3999999999999999 0.6000000000000001 0.20000000000000018
-0.19999999999999996 0.6000000000000001 0.20000000000000018
0 0.6000000000000001 0.20000000000000018
0.20000000000000018 0.6000000000000001 0.20000000000000018
-0.6 -0.6 0.40000000000000013
-0.3999999999999999 -0.6 0.40000000000000013
-0.19999999999999996 -0.6 0.40000000000000013
0 -0.6 0.40000000000000013
-0.8 -0.3999999999999999 0.40000000000000013
-0.6 -0.3999999999999999 0.40000000000000013
-0.3999999999999999 -0.3999999999999999 0.40000000000000013
-0.19999999999999996 -0.3999999999999999 0.40000000000000013
0 -0.3999999999999999 0.40000000000000013
0.20000000000000018 -0.3999999999999999 0.40000000000000013
0.40000000000000013 -0.3999999999999999 0.40000000000000013
0.6000000000000001 -0.3999999999999999 0.40000000000000013
-0.8 -0.19999999999999996 0.40000000000000013
-0.6 -0.19999999999999996 0.40000000000000013
-0.3999999999999999 -0.19999999999999996 0.40000000000000013
-0.19999999999999996 -0.19999999999999996 0.40000000000000013
0 -0.19999999999999996 0.40000000000000013
0.20000000000000018 -0.19999999999999996 0.40000000000000013
0.40000000000000013 -0.19999999999999996 0.40000000000000013
0.6000000000000001 -0.19999999999999996 0.40000000000000013
-0.8 0 0.40000000000000013
-0.6 0 0.40000000000000013
-0.3999999999999999 0 0.40000000000000013
-0.19999999999999996 0 0.40000000000000013
0 0 0.40000000000000013
0.20000000000000018 0 0.40000000000000013
0.40000000000000013 0 0.40000000000000013
0.6000000000000001 0 0.40000000000000013
-0.8 0.20000000000000018 0.40000000000000013
-0.6 0.20000000000000018 0.40000000000000013
-0.3999999999999999 0.20000000000000018 0.40000000000000013
-0.19999999999999996 0.20000000000000018 0.40000000000000013
0 0.20000000000000018 0.40000000000000013
0.20000000000000018 0.20000000000000018 0.40000000000000013
0.40000000000000013 0.20000000000000018 0.40000000000000013
0.6000000000000001 0.20000000000000018 0.40000000000000013
-0.8 0.40000000000000013 0.40000000000000013
-0.6 0.40000000000000013 0.40000000000000013
-0.3999999999999999 0.40000000000000013 0.40000000000000013
-0.19999999999999996 0.40000000000000013 0.40000000000000013
0 0.40000000000000013 0.40000000000000013
0.20000000000000018 0.40000000000000013 0.40000000000000013
0.40000000000000013 0.40000000000000013 0.40000000000000013
0.6000000000000001 0.40000000000000013 0.40000000000000013
-0.6 0.6000000000000001 0.40000000000000013
-0.3999999999999999 0.6000000000000001 0.40000000000000013
-0.19999999999999996 0.6000000000000001 0.40000000000000013
0 0.6000000000000001 0.40000000000000013
-0.6 -0.3999999999999999 0.6000000000000001
-0.3999999999999999 -0.3999999999999999 0.6000000000000001
-0.19999999999999996 -0.3999999999999999 0.6000000000000001
0 -0.3999999999999999 0.6000000000000001
-0.6 -0.19999999999999996 0.6000000000000001
-0.3999999999999999 -0.19999999999999996 0.6000000000000001
-0.19999999999999996 -0.19999999999999996 0.6000000000000001
0 -0.19999999999999996 0.6000000000000001
0.20000000000000018 -0.19999999999999996 0.6000000000000001
-0.6 0 0.6000000000000001
-0.3999999999999999 0 0.6000000000000001
-0.19999999999999996 0 0.6000000000000001
0 0 0.6000000000000001
0.20000000000000018 0 0.6000000000000001
-0.6 0.20000000000000018 0.6000000000000001
-0.3999999999999999 0.20000000000000018 0.6000000000000001
-0.19999999999999996 0.20000000000000018 0.6000000000000001
0 0.20000000000000018 0.6000000000000001
0.20000000000000018 0.20000000000000018 0.6000000000000001
-0.6 0.40000000000000013 0.6000000000000001
-0.3999999999999999 0.40000000000000013 0.6000000000000001
-0.19999999999999996 0.40000000000000013 0.6000000000000001
0 0.40000000000000013 0.6000000000000001


POINT_DATA 297
SCALARS enriched_nodes_heaviside double 1
LOOKUP_TABLE default
0
0
0
0
0
0
0
0
0
0
0
0
0
0
0
0
0
0
0
0
0
0
0
0
0
0
0
0
0
0
0
0
0
0
0
0
0
0
0
0
0
0
0
0
0
0
0
0
0
0
0
0
0
0
0
0
0
0
0
0
0
0
0
0
0
0
0
0
0
0
0
0
0
0
0
0
0
0
0
0
0
0
0
0
0
0
0
0
0
0
0
0
0
0
0
0
0
0
0
0
0
0
0
0
0
0
0
0
0
0
0
0
0
0
0
0
0
0
0
0
0
0
0
0
0
0
0
0
0
0
0
0
0
0
0
0
0
0
0
0
0
0
0
0
0
0
0
0
0
0
0
0
0
0
0
0
0
0
0
0
0
0
0
0
0
0
0
0
0
0
0
0
0
0
0
0
0
0
0
0
0
0
0
0
0
0
0
0
0
0
0
0
0
0
0
0
0
0
0
0
0
0
0
0
0
0
0
0
0
0
0
0
0
0
0
0
0
0
0
0
0
0
0
0
0
0
0
0
0
0
0
0
0
0
0
0
0
0
0
0
0
0
0
0
0
0
0
0
0
0
0
0
0
0
0
0
0
0
0
0
0
0
0
0
0
0
0
0
0
0
0
0
0
0
0
0
0
0
0
0
0
0
0
0
0
0
0
0
0
0
0
0
0
0
0
0
0

