# vtk DataFile Version 4.1
Header:
ASCII

DATASET UNSTRUCTURED_GRID
POINTS 1182 double
-0.9718233512793084 -0.9718233512793084 0
-0.8948433153873585 -0.9718233512793084 0
-0.9718233512793084 -0.8948433153873584 0
-0.8948433153873583 -0.8948433153873584 0
-0.8384900179459752 -0.9718233512793084 0
-0.761509982054025 -0.9718233512793084 0
-0.8384900179459751 -0.8948433153873584 0
-0.7615099820540251 -0.8948433153873584 0
-0.7051566846126418 -0.9718233512793084 0
-0.6281766487206917 -0.9718233512793084 0
-0.7051566846126418 -0.8948433153873584 0
-0.6281766487206917 -0.8948433153873584 0
-0.5718233512793084 -0.9718233512793084 0
-0.4948433153873583 -0.9718233512793084 0
-0.5718233512793084 -0.8948433153873584 0
-0.49484331538735826 -0.8948433153873584 0
-0.4384900179459751 -0.9718233512793084 0
-0.361509982054025 -0.9718233512793084 0
-0.4384900179459751 -0.8948433153873584 0
-0.361509982054025 -0.8948433153873584 0
-0.3051566846126417 -0.9718233512793084 0
-0.2281766487206916 -0.9718233512793084 0
-0.3051566846126418 -0.8948433153873584 0
-0.2281766487206916 -0.8948433153873584 0
-0.17182335127930834 -0.9718233512793084 0
-0.09484331538735827 -0.9718233512793084 0
-0.17182335127930837 -0.8948433153873584 0
-0.09484331538735827 -0.8948433153873584 0
-0.038490017945975036 -0.9718233512793084 0
0.03849001794597504 -0.9718233512793084 0
-0.03849001794597504 -0.8948433153873584 0
0.038490017945975036 -0.8948433153873584 0
0.09484331538735827 -0.9718233512793084 0
0.17182335127930834 -0.9718233512793084 0
0.09484331538735827 -0.8948433153873584 0
0.17182335127930834 -0.8948433153873584 0
0.22817664872069157 -0.9718233512793084 0
0.3051566846126417 -0.9718233512793084 0
0.2281766487206916 -0.8948433153873584 0
0.30515668461264167 -0.8948433153873584 0
0.36150998205402496 -0.9718233512793084 0
0.43849001794597503 -0.9718233512793084 0
0.3615099820540249 -0.8948433153873584 0
0.438490017945975 -0.8948433153873584 0
0.49484331538735826 -0.9718233512793084 0
0.5718233512793084 -0.9718233512793084 0
0.49484331538735826 -0.8948433153873584 0
0.5718233512793084 -0.8948433153873584 0
0.6281766487206917 -0.9718233512793084 0
0.7051566846126418 -0.9718233512793084 0
0.6281766487206917 -0.8948433153873584 0
0.7051566846126417 -0.8948433153873584 0
0.761509982054025 -0.9718233512793084 0
0.8384900179459751 -0.9718233512793084 0
0.761509982054025 -0.8948433153873584 0
0.8384900179459751 -0.8948433153873584 0
0.8948433153873585 -0.9718233512793084 0
0.9718233512793085 -0.9718233512793084 0
0.8948433153873584 -0.8948433153873584 0
0.9718233512793085 -0.8948433153873584 0
-0.9718233512793084 -0.8384900179459751 0
-0.8948433153873585 -0.8384900179459751 0
-0.9718233512793084 -0.761509982054025 0
-0.8948433153873583 -0.761509982054025 0
-0.8384900179459752 -0.8384900179459751 0
-0.761509982054025 -0.8384900179459751 0
-0.8384900179459751 -0.761509982054025 0
-0.7615099820540251 -0.761509982054025 0
-0.7051566846126418 -0.8384900179459751 0
-0.6281766487206917 -0.8384900179459751 0
-0.7051566846126418 -0.761509982054025 0
-0.6281766487206917 -0.761509982054025 0
-0.5718233512793084 -0.8384900179459751 0
-0.4948433153873583 -0.8384900179459751 0
-0.5718233512793084 -0.761509982054025 0
-0.49484331538735826 -0.761509982054025 0
-0.4384900179459751 -0.8384900179459751 0
-0.361509982054025 -0.8384900179459751 0
-0.4384900179459751 -0.761509982054025 0
-0.361509982054025 -0.761509982054025 0
-0.3051566846126417 -0.8384900179459751 0
-0.2281766487206916 -0.8384900179459751 0
-0.3051566846126418 -0.761509982054025 0
-0.2281766487206916 -0.761509982054025 0
-0.17182335127930834 -0.8384900179459751 0
-0.09484331538735827 -0.8384900179459751 0
-0.17182335127930837 -0.761509982054025 0
-0.09484331538735827 -0.761509982054025 0
-0.038490017945975036 -0.8384900179459751 0
0.03849001794597504 -0.8384900179459751 0
-0.03849001794597504 -0.761509982054025 0
0.038490017945975036 -0.761509982054025 0
0.09484331538735827 -0.8384900179459751 0
0.17182335127930834 -0.8384900179459751 0
0.09484331538735827 -0.761509982054025 0
0.17182335127930834 -0.761509982054025 0
0.22817664872069157 -0.8384900179459751 0
0.3051566846126417 -0.8384900179459751 0
0.2281766487206916 -0.761509982054025 0
0.30515668461264167 -0.761509982054025 0
0.36150998205402496 -0.8384900179459751 0
0.43849001794597503 -0.8384900179459751 0
0.3615099820540249 -0.761509982054025 0
0.438490017945975 -0.761509982054025 0
0.49484331538735826 -0.8384900179459751 0
0.5718233512793084 -0.8384900179459751 0
0.49484331538735826 -0.761509982054025 0
0.5718233512793084 -0.761509982054025 0
0.6281766487206917 -0.8384900179459751 0
0.7051566846126418 -0.8384900179459751 0
0.6281766487206917 -0.761509982054025 0
0.7051566846126417 -0.761509982054025 0
0.761509982054025 -0.8384900179459751 0
0.8384900179459751 -0.8384900179459751 0
0.761509982054025 -0.761509982054025 0
0.8384900179459751 -0.761509982054025 0
0.8948433153873585 -0.8384900179459751 0
0.9718233512793085 -0.8384900179459751 0
0.8948433153873584 -0.761509982054025 0
0.9718233512793085 -0.761509982054025 0
-0.9718233512793084 -0.7051566846126418 0
-0.8948433153873585 -0.7051566846126418 0
-0.9718233512793084 -0.6281766487206917 0
-0.8948433153873583 -0.6281766487206916 0
-0.8384900179459752 -0.7051566846126418 0
-0.761509982054025 -0.7051566846126418 0
-0.8384900179459751 -0.6281766487206917 0
-0.7615099820540251 -0.6281766487206916 0
-0.7051566846126418 -0.7051566846126418 0
-0.6281766487206917 -0.7051566846126418 0
-0.7051566846126418 -0.6281766487206917 0
-0.6281766487206917 -0.6281766487206916 0
-0.5718233512793084 -0.7051566846126418 0
-0.4948433153873583 -0.7051566846126418 0
-0.5718233512793084 -0.6281766487206917 0
-0.49484331538735826 -0.6281766487206916 0
-0.4384900179459751 -0.7051566846126418 0
-0.361509982054025 -0.7051566846126418 0
-0.4384900179459751 -0.6281766487206917 0
-0.361509982054025 -0.6281766487206916 0
-0.3051566846126417 -0.7051566846126418 0
-0.2281766487206916 -0.7051566846126418 0
-0.3051566846126418 -0.6281766487206917 0
-0.2281766487206916 -0.6281766487206916 0
-0.17182335127930834 -0.7051566846126418 0
-0.09484331538735827 -0.7051566846126418 0
-0.17182335127930837 -0.6281766487206917 0
-0.09484331538735827 -0.6281766487206916 0
-0.038490017945975036 -0.7051566846126418 0
0.03849001794597504 -0.7051566846126418 0
-0.03849001794597504 -0.6281766487206917 0
0.038490017945975036 -0.6281766487206916 0
0.09484331538735827 -0.7051566846126418 0
0.17182335127930834 -0.7051566846126418 0
0.09484331538735827 -0.6281766487206917 0
0.17182335127930834 -0.6281766487206916 0
0.22817664872069157 -0.7051566846126418 0
0.3051566846126417 -0.7051566846126418 0
0.2281766487206916 -0.6281766487206917 0
0.30515668461264167 -0.6281766487206916 0
0.36150998205402496 -0.7051566846126418 0
0.43849001794597503 -0.7051566846126418 0
0.3615099820540249 -0.6281766487206917 0
0.438490017945975 -0.6281766487206916 0
0.49484331538735826 -0.7051566846126418 0
0.5718233512793084 -0.7051566846126418 0
0.49484331538735826 -0.6281766487206917 0
0.5718233512793084 -0.6281766487206916 0
0.6281766487206917 -0.7051566846126418 0
0.7051566846126418 -0.7051566846126418 0
0.6281766487206917 -0.6281766487206917 0
0.7051566846126417 -0.6281766487206916 0
0.761509982054025 -0.7051566846126418 0
0.8384900179459751 -0.7051566846126418 0
0.761509982054025 -0.6281766487206917 0
0.8384900179459751 -0.6281766487206916 0
0.8948433153873585 -0.7051566846126418 0
0.9718233512793085 -0.7051566846126418 0
0.8948433153873584 -0.6281766487206917 0
0.9718233512793085 -0.6281766487206916 0
-0.9718233512793084 -0.5718233512793084 0
-0.8948433153873585 -0.5718233512793084 0
-0.9718233512793084 -0.4948433153873583 0
-0.8948433153873583 -0.4948433153873583 0
-0.8384900179459752 -0.5718233512793084 0
-0.761509982054025 -0.5718233512793084 0
-0.8384900179459751 -0.4948433153873583 0
-0.7615099820540251 -0.4948433153873583 0
-0.7051566846126418 -0.5718233512793084 0
-0.6281766487206917 -0.5718233512793084 0
-0.7051566846126418 -0.4948433153873583 0
-0.6281766487206917 -0.4948433153873583 0
-0.5718233512793084 -0.5718233512793084 0
-0.4948433153873583 -0.5718233512793084 0
-0.5718233512793084 -0.4948433153873583 0
-0.49484331538735826 -0.4948433153873583 0
-0.4384900179459751 -0.5718233512793084 0
-0.361509982054025 -0.5718233512793084 0
-0.4384900179459751 -0.4948433153873583 0
-0.361509982054025 -0.4948433153873583 0
-0.3051566846126417 -0.5718233512793084 0
-0.2281766487206916 -0.5718233512793084 0
-0.3051566846126418 -0.4948433153873583 0
-0.2281766487206916 -0.4948433153873583 0
-0.17182335127930834 -0.5718233512793084 0
-0.09484331538735827 -0.5718233512793084 0
-0.17182335127930837 -0.4948433153873583 0
-0.09484331538735827 -0.4948433153873583 0
-0.038490017945975036 -0.5718233512793084 0
0.03849001794597504 -0.5718233512793084 0
-0.03849001794597504 -0.4948433153873583 0
0.038490017945975036 -0.4948433153873583 0
0.09484331538735827 -0.5718233512793084 0
0.17182335127930834 -0.5718233512793084 0
0.09484331538735827 -0.4948433153873583 0
0.17182335127930834 -0.4948433153873583 0
0.22817664872069157 -0.5718233512793084 0
0.3051566846126417 -0.5718233512793084 0
0.2281766487206916 -0.4948433153873583 0
0.30515668461264167 -0.4948433153873583 0
0.36150998205402496 -0.5718233512793084 0
0.43849001794597503 -0.5718233512793084 0
0.3615099820540249 -0.4948433153873583 0
0.438490017945975 -0.4948433153873583 0
0.49484331538735826 -0.5718233512793084 0
0.5718233512793084 -0.5718233512793084 0
0.49484331538735826 -0.4948433153873583 0
0.5718233512793084 -0.4948433153873583 0
0.6281766487206917 -0.5718233512793084 0
0.7051566846126418 -0.5718233512793084 0
0.6281766487206917 -0.4948433153873583 0
0.7051566846126417 -0.4948433153873583 0
0.761509982054025 -0.5718233512793084 0
0.8384900179459751 -0.5718233512793084 0
0.761509982054025 -0.4948433153873583 0
0.8384900179459751 -0.4948433153873583 0
0.8948433153873585 -0.5718233512793084 0
0.9718233512793085 -0.5718233512793084 0
[...]
POINT_DATA 1182
VECTORS heat_flux double
104.68937387388331 0.10326184552957329 0.0
104.68937387388331 0.38537845399940807 0.0
104.97149048235326 0.1032618455294596 0.0
104.97149048235326 0.38537845399940807 0.0
103.76530458920152 0.5672066881128899 0.0
103.76530458920152 0.7818540534917133 0.0
103.97995195458037 0.5672066881129467 0.0
103.97995195458037 0.7818540534917702 0.0
102.13814417899592 0.8955095713948253 0.0
102.13814417899592 0.9913748554876349 0.0
102.23400946308874 0.8955095713948253 0.0
102.2340094630888 0.9913748554876207 0.0
100.1899713078148 1.0129361037492686 0.0
100.1899713078148 0.9759772453816709 0.0
100.15301244944732 1.0129361037492117 0.0
100.15301244944726 0.9759772453817277 0.0
98.34319954970937 0.9126626300520684 0.0
98.34319954970937 0.7766427424776481 0.0
98.20717966213499 0.9126626300520684 0.0
98.20717966213499 0.7766427424776481 0.0
96.91946166025446 0.6631582332007326 0.0
96.91946166025446 0.48913267555847284 0.0
96.74543610261222 0.6631582332007326 0.0
96.74543610261222 0.48913267555847284 0.0
96.06304898628056 0.364309581798679 0.0
96.06304898628059 0.1973121053311857 0.0
95.89605150981308 0.364309581798679 0.0
95.8960515098131 0.1973121053311786 0.0
95.78299172911142 0.07862747798359493 0.0
95.78299172911142 -0.07862747753993027 0.0
95.6257367735879 0.07862747798359493 0.0
95.6257367735879 -0.07862747753993027 0.0
96.06304898539567 -0.1973121048886668 0.0
96.06304898539567 -0.3643095813592616 0.0
95.89605150892511 -0.19731210488865258 0.0
95.89605150892511 -0.3643095813592456 0.0
96.91946165849903 -0.4891326751241962 0.0
96.91946165849905 -0.663158232777338 0.0
96.74543610084588 -0.4891326751241962 0.0
96.74543610084588 -0.6631582327773522 0.0
98.34319954712602 -0.7766427420673949 0.0
98.34319954712602 -0.9126626296665137 0.0
98.20717965952687 -0.7766427420673665 0.0
98.20717965952687 -0.9126626296665137 0.0
100.18997130449102 -0.9759772450198625 0.0
100.18997130449102 -1.012936103427819 0.0
100.1530124460831 -0.9759772450199193 0.0
100.1530124460831 -1.0129361034278332 0.0
102.13814417506887 -0.9913748552004904 0.0
102.13814417506887 -0.8955095711607584 0.0
102.23400945910856 -0.9913748552004904 0.0
102.23400945910856 -0.8955095711607441 0.0
103.76530458485153 -0.781854053299412 0.0
103.76530458485153 -0.5672066879810984 0.0
103.97995195016978 -0.7818540532993552 0.0
103.97995195016983 -0.5672066879810558 0.0
104.6893738693162 -0.3853784539128924 0.0
104.6893738693162 -0.10326184550643802 0.0
104.97149047772297 -0.3853784539129492 0.0
104.97149047772285 -0.10326184550629591 0.0
105.41047991536445 0.335727587481756 0.0
105.41047991536445 1.252952413984275 0.0
106.32770474186702 0.33572758748164233 0.0
106.32770474186702 1.252952413984275 0.0
104.31641977796633 1.8465814362678543 0.0
104.31641977796633 2.5511812594915853 0.0
105.02101960119012 1.846581436267968 0.0
105.02101960119018 2.5511812594916705 0.0
102.38256706738044 2.9225511692663986 0.0
102.38256706738044 3.232552807949318 0.0
102.69256870606341 2.9225511692664554 0.0
102.69256870606341 3.232552807949361 0.0
100.08391682248624 3.2904535370184362 0.0
100.08391682248624 3.1386396319477967 0.0
99.93210291741553 3.29045353701855 0.0
99.93210291741553 3.1386396319477967 0.0
97.97774126927695 2.903420227458298 0.0
97.97774126927695 2.4126027685376386 0.0
97.48692381035627 2.903420227458298 0.0
97.48692381035627 2.4126027685376386 0.0
96.46887712364753 2.0200899059918527 0.0
96.46887712364753 1.4385422818131914 0.0
95.88732949946885 2.0200899059918527 0.0
95.88732949946885 1.4385422818131914 0.0
95.65415907856075 1.0449139653559456 0.0
95.65415907856075 0.5510490296756956 0.0
95.1602941428805 1.0449139653559456 0.0
95.16029414288052 0.551049029675692 0.0
95.41167791265751 0.21378236484056856 0.0
95.41167791265751 -0.21378236350806645 0.0
94.98411318430885 0.21378236484056856 0.0
94.98411318430888 -0.21378236350806645 0.0
95.65415907767067 -0.5510490283441456 0.0
95.65415907767067 -1.0449139640270158 0.0
95.16029414198782 -0.5510490283441527 0.0
95.16029414198786 -1.0449139640270158 0.0
96.4688771218679 -1.4385422804944596 0.0
96.46887712186793 -2.0200899046984233 0.0
95.88732949766393 -1.4385422804944596 0.0
95.88732949766393 -2.0200899046984375 0.0
97.97774126663393 -2.4126027672793384 0.0
97.97774126663393 -2.903420226270619 0.0
97.4869238076426 -2.412602767279367 0.0
97.4869238076426 -2.903420226270619 0.0
100.08391681906119 -3.138639630832074 0.0
100.08391681906119 -3.290453536028778 0.0
99.93210291386447 -3.138639630832131 0.0
99.93210291386447 -3.2904535360287923 0.0
102.38256706331968 -3.232552807066895 0.0
102.38256706331968 -2.922551168550825 0.0
102.69256870183574 -3.232552807066895 0.0
102.69256870183574 -2.9225511685509247 0.0
104.31641977346524 -2.5511812589056717 0.0
104.31641977346524 -1.846581435868515 0.0
105.02101959650236 -2.5511812589056717 0.0
105.02101959650224 -1.8465814358684725 0.0
105.41047991064093 -1.2529524137232215 0.0
105.41047991064093 -0.33572758741175335 0.0
106.32770473695246 -1.2529524137232215 0.0
106.32770473695251 -0.3357275874119807 0.0
107.30770392592677 0.6442715965780508 0.0
107.30770392592677 2.404454332302919 0.0
109.06788666165164 0.6442715965780508 0.0
109.06788666165164 2.4044543323028904 0.0
105.79747944076303 3.567284333652026 0.0
105.79747944076303 4.984012242178068 0.0
107.21420734928927 3.567284333652026 0.0
107.21420734928927 4.984012242178096 0.0
103.04030523221553 5.736838698128395 0.0
103.04030523221553 6.376870916540554 0.0
103.68033745062763 5.736838698128395 0.0
103.68033745062763 6.376870916540497 0.0
99.7289951895997 6.463598985807721 0.0
99.7289951895997 6.060512259075836 0.0
99.32590846286786 6.463598985807721 0.0
99.32590846286786 6.06051225907585 0.0
96.87041078489807 5.476110910291254 0.0
96.87041078489803 4.282583460131946 0.0
95.67688333473876 5.476110910291254 0.0
95.67688333473873 4.282583460131946 0.0
95.21709771580421 3.388351513554852 0.0
95.21709771580421 2.138791851914256 0.0
93.96753805416364 3.388351513554852 0.0
93.96753805416364 2.138791851914256 0.0
94.70589794439648 1.4077921862228209 0.0
94.70589794439648 0.6602236208785506 0.0
93.95832937905222 1.4077921862228209 0.0
93.95832937905222 0.6602236208785435 0.0
94.66421955633388 0.22320045925464171 0.0
94.66421955633388 -0.223200457041985 0.0
94.21781864003724 0.22320045925464171 0.0
94.21781864003724 -0.223200457041985 0.0
94.70589794351048 -0.6602236186582573 0.0
94.70589794351048 -1.4077921839816963 0.0
93.95832937818707 -0.6602236186582644 0.0
93.95832937818707 -1.4077921839816963 0.0
95.21709771398925 -2.1387918496662337 0.0
95.21709771398925 -3.3883515113089224 0.0
93.96753805234661 -2.1387918496662337 0.0
93.9675380523466 -3.388351511308933 0.0
96.87041078211811 -4.28258345792716 0.0
96.87041078211811 -5.476110908196624 0.0
95.67688333184861 -4.28258345792716 0.0
95.67688333184861 -5.476110908196624 0.0
99.72899518591974 -6.060512257104335 0.0
99.72899518591974 -6.463598984062671 0.0
99.32590845896146 -6.060512257104335 0.0
99.32590845896146 -6.463598984062685 0.0
103.04030522781184 -6.376870914993276 0.0
103.04030522781181 -5.736838696895077 0.0
103.68033744591003 -6.376870914993276 0.0
103.68033744591003 -5.736838696895063 0.0
105.79747943588711 -4.984012241179414 0.0
105.7974794358871 -3.5672843329803072 0.0
107.21420734408616 -4.984012241179414 0.0
107.21420734408616 -3.567284332980222 0.0
107.30770392082567 -2.4044543318676688 0.0
107.30770392082567 -0.6442715964614933 0.0
109.0678866562319 -2.4044543318676688 0.0
109.0678866562319 -0.6442715964614933 0.0
110.76586691372648 1.0537086554968482 0.0
110.76586691372648 3.932494238689145 0.0
113.64465249691887 1.0537086554967345 0.0
113.64465249691887 3.9324942386891166 0.0
108.68733460457712 5.9407717447029995 0.0
108.68733460457712 8.548702343637785 0.0
111.29526520351209 5.940771744702829 0.0
111.29526520351209 8.548702343637785 0.0
104.46915808894694 10.057823781294701 0.0
104.46915808894694 11.572889624829813 0.0
105.98422393248205 10.057823781294758 0.0
105.98422393248205 11.572889624829813 0.0
98.85657086600385 11.805644597018045 0.0
98.85657086600385 10.926477163215282 0.0
97.97740343220113 11.805644597018045 0.0
97.97740343220113 10.926477163215296 0.0
94.15129138559003 9.515948965987178 0.0
94.15129138559003 6.541481699454195 0.0
91.17682411905702 9.515948965987178 0.0
91.17682411905702 6.541481699454195 0.0
92.47879590677465 4.421379549493594 0.0
92.47879590677465 1.6036200250982091 0.0
89.66103638237931 4.421379549493594 0.0
89.66103638237931 1.6036200250982091 0.0
93.42960823329008 0.3171563976385414 0.0
93.42960823329008 -0.37976807027527215 0.0
92.73268376537627 0.3171563976385414 0.0
92.73268376537627 -0.3797680702752757 0.0
94.32274802810315 -0.36653666634756377 0.0
94.32274802810315 0.36653666935224294 0.0
95.05582136380293 -0.36653666634756377 0.0
95.05582136380293 0.36653666935224294 0.0
93.42960823248173 0.3797680733290818 0.0
93.42960823248173 -0.31715639445050314 0.0
92.73268376470216 0.379768073329096 0.0
92.73268376470216 -0.31715639445050314 0.0
92.47879590497972 -1.603620021838097 0.0
92.47879590497972 -4.4213795461708045 0.0
89.66103638064703 -1.603620021838097 0.0
89.66103638064703 -4.421379546170787 0.0
94.15129138265064 -6.541481696117472 0.0
94.15129138265064 -9.515948962674933 0.0
91.17682411609312 -6.541481696117444 0.0
91.17682411609312 -9.515948962674933 0.0
98.85657086184284 -10.92647716008372 0.0
98.85657086184284 -11.805644594355925 0.0
97.97740342757075 -10.92647716008375 0.0
97.97740342757075 -11.805644594355883 0.0
104.4691580839203 -11.57288962253358 0.0
104.4691580839203 -10.057823779528746 0.0
105.98422392692521 -11.57288962253358 0.0
105.98422392692521 -10.057823779528746 0.0
108.68733459907895 -8.548702342241313 0.0
108.68733459907895 -5.940771743785376 0.0
111.29526519753489 -8.548702342241256 0.0
111.29526519753489 -5.940771743785334 0.0
110.76586690803325 -3.932494238103743 0.0
110.76586690803325 -1.0537086553399888 0.0
113.64465249079723 -3.9324942381039136 0.0
113.64465249079723 -1.0537086553399888 0.0
116.17576619459345 1.4774050421779066 0.0
116.17576619459345 5.5137506807661225 0.0
120.21211183318184 1.4774050421779066 0.0
120.21211183318184 5.5137506807661225 0.0
113.90931410970653 8.650635778621563 0.0
113.90931410970653 13.184419604879565 0.0
118.4430979359646 8.650635778621563 0.0
118.4430979359646 13.184419604879537 0.0
108.0330829307372 16.338206071672346 0.0
108.0330829307372 20.420727108915074 0.0
112.11560396798001 16.338206071672346 0.0
112.11560396798001 20.420727108915017 0.0
97.70018233797319 21.959610040754058 0.0
97.70018233797319 22.081395360196225 0.0
97.8219676574152 21.959610040754058 0.0
97.8219676574152 22.081395360196254 0.0
86.85914097806919 18.89701932220848 0.0
86.85914097806919 10.0753568765791 0.0
78.03747853243985 18.89701932220848 0.0
78.03747853243985 10.0753568765791 0.0
85.49913730559709 3.7158768087696217 0.0
85.49913730559709 -4.836883400578017 0.0
76.94637709624942 3.7158768087696217 0.0
76.94637709624942 -4.836883400578017 0.0
93.09778290655197 -7.34721970872485 0.0
93.09778290655197 -5.652825837319213 0.0
94.79217677795758 -7.34721970872485 0.0
94.79217677795758 -5.65282583731922 0.0
97.45118650275941 -2.905592961114756 0.0
97.45118650275941 2.905592965493817 0.0
103.26237242936796 -2.905592961114756 0.0
103.26237242936796 2.905592965493817 0.0
93.09778290550108 5.652825841272374 0.0
93.09778290550108 7.347219711514349 0.0
94.79217677574307 5.652825841272367 0.0
94.79217677574307 7.3472197115143505 0.0
85.49913730467692 4.836883403730823 0.0
85.49913730467692 -3.7158768034607057 0.0
76.94637709748542 4.836883403730823 0.0
76.94637709748542 -3.71587680346072 0.0
86.85914097490965 -10.075356870667719 0.0
86.85914097490965 -18.897019316807153 0.0
78.03747852877018 -10.075356870667747 0.0
78.03747852877018 -18.897019316807153 0.0
97.70018233276993 -22.081395355382597 0.0
97.70018233276993 -21.95961003703632 0.0
97.82196765111624 -22.081395355382625 0.0
97.82196765111624 -21.959610037036335 0.0
108.0330829246408 -20.420727105943797 0.0
108.0330829246408 -16.338206069644855 0.0
112.11560396093978 -20.420727105943854 0.0
112.11560396093972 -16.338206069644855 0.0
113.90931410341203 -13.184419603339506 0.0
113.90931410341203 -8.650635777469148 0.0
118.44309792928237 -13.184419603339506 0.0
118.44309792928237 -8.650635777469049 0.0
116.17576618810142 -5.5137506799692915 0.0
116.17576618810142 -1.4774050419643459 0.0
120.21211182610648 -5.5137506799692915 0.0
120.21211182610648 -1.4774050419643174 0.0
123.30025373953376 1.6107368641741004 0.0
123.30025373953376 6.011351814722161 0.0
127.70086869008179 1.6107368641741004 0.0
127.70086869008179 6.011351814722161 0.0
122.50147334135092 10.020984028604971 0.0
122.50147334135092 16.574888006050287 0.0
129.05537731879622 10.020984028605142 0.0
129.05537731879622 16.57488800605026 0.0
117.34157706418515 22.705450040849144 0.0
117.34157706418515 32.90055302142686 0.0
127.53668004476299 22.705450040849087 0.0
127.53668004476299 32.90055302142686 0.0
107.73965915406069 41.97614273719802 0.0
104.42953338329286 46.20056813882023 0.0
101.1537650143542 39.61467399911379 0.0
98.95846696778531 47.60870993936088 0.0
98.95846696778531 41.02281579965444 0.0
102.23423533672388 47.60870993936088 0.0
108.84303441098328 37.41937595254484 0.0
108.84303441098328 39.78084469062907 0.0
102.25714027127682 37.41937595254484 0.0
174.08202698447894 1.975398807196882 0.0
176.7451352492344 -1.4232944600678366 0.0
176.7451352492344 1.975398807729789 0.0
59.38656937228469 42.91787287068162 0.0
64.49728515282231 22.259467524937584 0.0
69.66188648925835 42.91787287068161 0.0
176.3067533502749 6.442468304612703 0.0
176.80166098585914 4.441965265300496 0.0
177.8071306318907 6.4424683031916175 0.0
73.0869921949164 15.37333240968986 0.0
73.0869921949164 36.03173775543388 0.0
67.92239085848038 15.373332409689851 0.0
178.3072563910082 3.7751309179157033 0.0
178.3072563910082 5.775633952964654 0.0
177.30178674639774 3.7751309150735324 0.0
180.748586478785 8.160094967024634 0.0
179.16417531722573 11.312471919211475 0.0
178.38430376571068 8.160094967024634 0.0
68.13500064563517 -29.51730399094906 0.0
62.43432545282652 -6.714603219714512 0.0
56.793129013894486 -29.51730399094906 0.0
179.95226955349608 12.363264237791327 0.0
181.53668071647644 9.210887284893943 0.0
181.53668071647644 12.363264237791327 0.0
66.21494933007324 0.8862970373633713 0.0
71.91562452288187 -21.916403733871174 0.0
71.91562452288187 0.8862970373633713 0.0
186.511718067095 15.288169441873833 0.0
186.511718067095 20.910508099802882 0.0
182.10623180152652 15.288169439031662 0.0
102.12004151541502 -33.74677937455152 0.0
97.08928636303533 -23.632504754124035 0.0
97.08928636303533 -33.74677937455152 0.0
102.15521772586033 -18.098528741342093 0.0
112.26949234628778 -21.725149943850976 0.0
112.26949234628778 -18.098528741342093 0.0
110.5749858569386 -25.096574817326655 0.0
100.4607112365111 -21.46995361481779 0.0
105.49146638889081 -31.584228235245252 0.0
112.5278222478811 -9.751246863912684 0.0
112.5278222478811 9.751246868636422 0.0
132.03031598043023 -9.751246863912684 0.0
132.03031598043023 9.751246868636422 0.0
110.57498585820181 25.09657482416342 0.0
105.4914663888453 31.584228243752218 0.0
100.46071123517046 21.469953620720908 0.0
97.08928636082652 33.74677938361501 0.0
97.08928636082652 23.632504760583686 0.0
102.12004151450137 33.74677938361501 0.0
112.26949234798731 18.09852874637705 0.0
112.26949234798731 21.725149949819563 0.0
102.155217724956 18.09852874637705 0.0
182.1062318029476 -15.288169436367127 0.0
186.51171805856848 -20.91050808630257 0.0
186.51171805856848 -15.28816943583422 0.0
56.79312901564768 29.51730400075918 0.0
62.434325454669754 6.714603229160602 0.0
68.13500064756943 29.51730400075918 0.0
178.38430376002634 -8.160094952813779 0.0
179.16417531296247 -11.312471909263877 0.0
180.748586478785 -8.160094952813779 0.0
71.9156245248768 -0.8862970280386389 0.0
71.9156245248768 21.91640374355993 0.0
66.21494933197717 -0.8862970280386389 0.0
181.53668072216078 -12.363264232817528 0.0
181.53668072216078 -9.210887272104173 0.0
179.95226955633825 -12.363264232817528 0.0
177.80713062336417 -6.442468284717506 0.0
176.80166097875372 -4.441965252510727 0.0
176.30675334743273 -6.442468284717506 0.0
69.66188648552108 -42.917872860682806 0.0
64.49728514920439 -22.25946751541607 0.0
59.386569368784805 -42.9178728606828 0.0
177.30178673787123 -3.775130902994306 0.0
178.30725638248168 -5.775633937332714 0.0
178.30725638248168 -3.775130902994306 0.0
67.92239085478302 -15.373332400327376 0.0
73.08699219109967 -36.03173774559418 0.0
73.08699219109967 -15.373332400327376 0.0
107.73965913992441 -41.976142732935784 0.0
101.15376500517812 -39.61467399663002 0.0
104.42953337164971 -46.20056813137624 0.0
176.74513524639224 -1.9753988084403318 0.0
176.74513525207658 1.4232944693048921 0.0
174.08202698163677 -1.9753988084403318 0.0
102.2342353267343 -47.60870993085646 0.0
98.95846696026274 -41.02281579611019 0.0
98.95846696026274 -47.60870993085646 0.0
102.25714026126967 -37.41937595171469 0.0
108.84303439601588 -39.780844688020295 0.0
108.8430343960159 -37.41937595171469 0.0
117.34157705736 -32.90055302062899 0.0
117.34157705736001 -22.7054500385196 0.0
127.53668003946939 -32.90055302062899 0.0
127.53668003946939 -22.7054500385196 0.0
122.50147333416915 -16.574888003517913 0.0
122.50147333416916 -10.020984027049522 0.0
129.05537731063748 -16.574888003517856 0.0
129.05537731063748 -10.020984027049465 0.0
123.30025373199172 -6.011351813777367 0.0
123.30025373199172 -1.610736863921062 0.0
127.70086868184819 -6.01135181377731 0.0
127.70086868184819 -1.610736863921062 0.0
130.40964351400174 1.0980379597458523 0.0
130.40964351400174 4.097933454410821 0.0
133.40953900866668 1.0980379597458523 0.0
133.40953900866668 4.097933454410793 0.0
133.52016930849092 7.261868054142667 0.0
133.52016930849092 12.906002637769916 0.0
139.1643038921183 7.26186805414261 0.0
139.1643038921183 12.906002637769916 0.0
157.6782472708307 35.030838525170736 0.0
151.56474521600404 37.76646818914324 0.0
157.6782472708307 23.542600909516466 0.0
133.97180180478608 38.678344743800366 0.0
133.97180180478608 24.45447746417375 0.0
142.08216702958617 38.67834474380042 0.0
152.93695817762202 19.71318837096493 0.0
146.82345612279533 33.937055650591674 0.0
138.71309089799527 19.71318837096493 0.0
183.42473150312344 0.8624424150838195 0.0
179.237865148707 2.735953819410497 0.0
179.237865148707 0.8624424189918045 0.0
179.0743496712821 0.4967288219859256 0.0
179.0743496712821 1.2730994356502379 0.0
178.74066100205255 0.49672882482809655 0.0
177.89162820776028 1.6246826522348101 0.0
177.89162820776028 1.1266910860285861 0.0
178.6679988214246 1.6246826536558956 0.0
178.03918885732628 0.8679008828949009 0.0
178.48187079749778 0.5895218350815412 0.0
178.81555946814842 1.365892444482597 0.0
143.21396241341134 48.47801791453975 0.0
119.08223994651703 63.65317014713021 0.0
119.08223994651703 48.478017914539734 0.0
179.17883370444088 2.3271006028835473 0.0
179.17883370444088 3.7926293920520493 0.0
180.6443624872145 2.3271006028835473 0.0
180.6443624872145 3.7926293920520493 0.0
182.888633585776 5.15286596680653 0.0
182.888633585776 7.403572624298249 0.0
185.13934024326772 5.15286596680653 0.0
185.13934024326772 7.403572624298249 0.0
193.35959916304546 14.510577697279814 0.0
194.9799302451538 10.740664143327194 0.0
194.9799302451538 14.510577697279814 0.0
193.00676489990565 9.033440389316638 0.0
189.23685134524248 11.451596262190833 0.0
189.23685134524248 9.033440389316638 0.0
125.3080486955805 -36.29428171298225 0.0
125.30804869558047 -54.5317107236026 0.0
154.3094431230321 -36.29428171298225 0.0
189.95337883254138 12.708234116587391 0.0
193.72329239217834 10.290078245134282 0.0
192.1029613086489 14.059991801929073 0.0
167.88288057691597 -20.14342580585462 0.0
167.88288057691588 10.07171290490696 0.0
150.65438670498048 -20.14342580585462 0.0
210.2134264276856 -15.031896347572626 0.0
205.28361948777274 -12.825938785709923 0.0