# vtk DataFile Version 4.1
Header:
ASCII

DATASET UNSTRUCTURED_GRID
POINTS 1182 double
-1 -1 0
-0.8666666666666667 -1 0
-0.8666666666666667 -0.8666666666666667 0
-1 -0.8666666666666667 0
-0.8666666666666667 -1 0
-0.7333333333333334 -1 0
-0.7333333333333334 -0.8666666666666667 0
-0.8666666666666667 -0.8666666666666667 0
-0.7333333333333334 -1 0
-0.6 -1 0
-0.6 -0.8666666666666667 0
-0.7333333333333334 -0.8666666666666667 0
-0.6 -1 0
-0.4666666666666667 -1 0
-0.4666666666666667 -0.8666666666666667 0
-0.6 -0.8666666666666667 0
-0.4666666666666667 -1 0
-0.33333333333333337 -1 0
-0.33333333333333337 -0.8666666666666667 0
-0.4666666666666667 -0.8666666666666667 0
-0.33333333333333337 -1 0
-0.19999999999999996 -1 0
-0.19999999999999996 -0.8666666666666667 0
-0.33333333333333337 -0.8666666666666667 0
-0.19999999999999996 -1 0
-0.06666666666666665 -1 0
-0.06666666666666665 -0.8666666666666667 0
-0.19999999999999996 -0.8666666666666667 0
-0.06666666666666665 -1 0
0.06666666666666665 -1 0
0.06666666666666665 -0.8666666666666667 0
-0.06666666666666665 -0.8666666666666667 0
0.06666666666666665 -1 0
0.19999999999999996 -1 0
0.19999999999999996 -0.8666666666666667 0
0.06666666666666665 -0.8666666666666667 0
0.19999999999999996 -1 0
0.33333333333333326 -1 0
0.33333333333333326 -0.8666666666666667 0
0.19999999999999996 -0.8666666666666667 0
0.33333333333333326 -1 0
0.46666666666666656 -1 0
0.46666666666666656 -0.8666666666666667 0
0.33333333333333326 -0.8666666666666667 0
0.46666666666666656 -1 0
0.6000000000000001 -1 0
0.6000000000000001 -0.8666666666666667 0
0.46666666666666656 -0.8666666666666667 0
0.6000000000000001 -1 0
0.7333333333333334 -1 0
0.7333333333333334 -0.8666666666666667 0
0.6000000000000001 -0.8666666666666667 0
0.7333333333333334 -1 0
0.8666666666666667 -1 0
0.8666666666666667 -0.8666666666666667 0
0.7333333333333334 -0.8666666666666667 0
0.8666666666666667 -1 0
1 -1 0
1 -0.8666666666666667 0
0.8666666666666667 -0.8666666666666667 0
-1 -0.8666666666666667 0
-0.8666666666666667 -0.8666666666666667 0
-0.8666666666666667 -0.7333333333333334 0
-1 -0.7333333333333334 0
-0.8666666666666667 -0.8666666666666667 0
-0.7333333333333334 -0.8666666666666667 0
-0.7333333333333334 -0.7333333333333334 0
-0.8666666666666667 -0.7333333333333334 0
-0.7333333333333334 -0.8666666666666667 0
-0.6 -0.8666666666666667 0
-0.6 -0.7333333333333334 0
-0.7333333333333334 -0.7333333333333334 0
-0.6 -0.8666666666666667 0
-0.4666666666666667 -0.8666666666666667 0
-0.4666666666666667 -0.7333333333333334 0
-0.6 -0.7333333333333334 0
-0.4666666666666667 -0.8666666666666667 0
-0.33333333333333337 -0.8666666666666667 0
-0.33333333333333337 -0.7333333333333334 0
-0.4666666666666667 -0.7333333333333334 0
-0.33333333333333337 -0.8666666666666667 0
-0.19999999999999996 -0.8666666666666667 0
-0.19999999999999996 -0.7333333333333334 0
-0.33333333333333337 -0.7333333333333334 0
-0.19999999999999996 -0.8666666666666667 0
-0.06666666666666665 -0.8666666666666667 0
-0.06666666666666665 -0.7333333333333334 0
-0.19999999999999996 -0.7333333333333334 0
-0.06666666666666665 -0.8666666666666667 0
0.06666666666666665 -0.8666666666666667 0
0.06666666666666665 -0.7333333333333334 0
-0.06666666666666665 -0.7333333333333334 0
0.06666666666666665 -0.8666666666666667 0
0.19999999999999996 -0.8666666666666667 0
0.19999999999999996 -0.7333333333333334 0
0.06666666666666665 -0.7333333333333334 0
0.19999999999999996 -0.8666666666666667 0
0.33333333333333326 -0.8666666666666667 0
0.33333333333333326 -0.7333333333333334 0
0.19999999999999996 -0.7333333333333334 0
0.33333333333333326 -0.8666666666666667 0
0.46666666666666656 -0.8666666666666667 0
0.46666666666666656 -0.7333333333333334 0
0.33333333333333326 -0.7333333333333334 0
0.46666666666666656 -0.8666666666666667 0
0.6000000000000001 -0.8666666666666667 0
0.6000000000000001 -0.7333333333333334 0
0.46666666666666656 -0.7333333333333334 0
0.6000000000000001 -0.8666666666666667 0
0.7333333333333334 -0.8666666666666667 0
0.7333333333333334 -0.7333333333333334 0
0.6000000000000001 -0.7333333333333334 0
0.7333333333333334 -0.8666666666666667 0
0.8666666666666667 -0.8666666666666667 0
0.8666666666666667 -0.7333333333333334 0
0.7333333333333334 -0.7333333333333334 0
0.8666666666666667 -0.8666666666666667 0
1 -0.8666666666666667 0
1 -0.7333333333333334 0
0.8666666666666667 -0.7333333333333334 0
-1 -0.7333333333333334 0
-0.8666666666666667 -0.7333333333333334 0
-0.8666666666666667 -0.6 0
-1 -0.6 0
-0.8666666666666667 -0.7333333333333334 0
-0.7333333333333334 -0.7333333333333334 0
-0.7333333333333334 -0.6 0
-0.8666666666666667 -0.6 0
-0.7333333333333334 -0.7333333333333334 0
-0.6 -0.7333333333333334 0
-0.6 -0.6 0
-0.7333333333333334 -0.6 0
-0.6 -0.7333333333333334 0
-0.4666666666666667 -0.7333333333333334 0
-0.4666666666666667 -0.6 0
-0.6 -0.6 0
-0.4666666666666667 -0.7333333333333334 0
-0.33333333333333337 -0.7333333333333334 0
-0.33333333333333337 -0.6 0
-0.4666666666666667 -0.6 0
-0.33333333333333337 -0.7333333333333334 0
-0.19999999999999996 -0.7333333333333334 0
-0.19999999999999996 -0.6 0
-0.33333333333333337 -0.6 0
-0.19999999999999996 -0.7333333333333334 0
-0.06666666666666665 -0.7333333333333334 0
-0.06666666666666665 -0.6 0
-0.19999999999999996 -0.6 0
-0.06666666666666665 -0.7333333333333334 0
0.06666666666666665 -0.7333333333333334 0
0.06666666666666665 -0.6 0
-0.06666666666666665 -0.6 0
0.06666666666666665 -0.7333333333333334 0
0.19999999999999996 -0.7333333333333334 0
0.19999999999999996 -0.6 0
0.06666666666666665 -0.6 0
0.19999999999999996 -0.7333333333333334 0
0.33333333333333326 -0.7333333333333334 0
0.33333333333333326 -0.6 0
0.19999999999999996 -0.6 0
0.33333333333333326 -0.7333333333333334 0
0.46666666666666656 -0.7333333333333334 0
0.46666666666666656 -0.6 0
0.33333333333333326 -0.6 0
0.46666666666666656 -0.7333333333333334 0
0.6000000000000001 -0.7333333333333334 0
0.6000000000000001 -0.6 0
0.46666666666666656 -0.6 0
0.6000000000000001 -0.7333333333333334 0
0.7333333333333334 -0.7333333333333334 0
0.7333333333333334 -0.6 0
0.6000000000000001 -0.6 0
0.7333333333333334 -0.7333333333333334 0
0.8666666666666667 -0.7333333333333334 0
0.8666666666666667 -0.6 0
0.7333333333333334 -0.6 0
0.8666666666666667 -0.7333333333333334 0
1 -0.7333333333333334 0
1 -0.6 0
0.8666666666666667 -0.6 0
-1 -0.6 0
-0.8666666666666667 -0.6 0
-0.8666666666666667 -0.4666666666666667 0
-1 -0.4666666666666667 0
-0.8666666666666667 -0.6 0
-0.7333333333333334 -0.6 0
-0.7333333333333334 -0.4666666666666667 0
-0.8666666666666667 -0.4666666666666667 0
-0.7333333333333334 -0.6 0
-0.6 -0.6 0
-0.6 -0.4666666666666667 0
-0.7333333333333334 -0.4666666666666667 0
-0.6 -0.6 0
-0.4666666666666667 -0.6 0
-0.4666666666666667 -0.4666666666666667 0
-0.6 -0.4666666666666667 0
-0.4666666666666667 -0.6 0
-0.33333333333333337 -0.6 0
-0.33333333333333337 -0.4666666666666667 0
-0.4666666666666667 -0.4666666666666667 0
-0.33333333333333337 -0.6 0
-0.19999999999999996 -0.6 0
-0.19999999999999996 -0.4666666666666667 0
-0.33333333333333337 -0.4666666666666667 0
-0.19999999999999996 -0.6 0
-0.06666666666666665 -0.6 0
-0.06666666666666665 -0.4666666666666667 0
-0.19999999999999996 -0.4666666666666667 0
-0.06666666666666665 -0.6 0
0.06666666666666665 -0.6 0
0.06666666666666665 -0.4666666666666667 0
-0.06666666666666665 -0.4666666666666667 0
0.06666666666666665 -0.6 0
0.19999999999999996 -0.6 0
0.19999999999999996 -0.4666666666666667 0
0.06666666666666665 -0.4666666666666667 0
0.19999999999999996 -0.6 0
0.33333333333333326 -0.6 0
0.33333333333333326 -0.4666666666666667 0
0.19999999999999996 -0.4666666666666667 0
0.33333333333333326 -0.6 0
0.46666666666666656 -0.6 0
0.46666666666666656 -0.4666666666666667 0
0.33333333333333326 -0.4666666666666667 0
0.46666666666666656 -0.6 0
0.6000000000000001 -0.6 0
0.6000000000000001 -0.4666666666666667 0
0.46666666666666656 -0.4666666666666667 0
0.6000000000000001 -0.6 0
0.7333333333333334 -0.6 0
0.7333333333333334 -0.4666666666666667 0
0.6000000000000001 -0.4666666666666667 0
0.7333333333333334 -0.6 0
0.8666666666666667 -0.6 0
0.8666666666666667 -0.4666666666666667 0
0.7333333333333334 -0.4666666666666667 0
0.8666666666666667 -0.6 0
1 -0.6 0
1 -0.4666666666666667 0
0.8666666666666667 -0.4666666666666667 0
-1 -0.4666666666666667 0
-0.8666666666666667 -0.4666666666666667 0
-0.8666666666666667 -0.33333333333333337 0
-1 -0.33333333333333337 0
-0.8666666666666667 -0.4666666666666667 0
-0.7333333333333334 -0.4666666666666667 0
-0.7333333333333334 -0.33333333333333337 0
-0.8666666666666667 -0.33333333333333337 0
-0.7333333333333334 -0.4666666666666667 0
-0.6 -0.4666666666666667 0
-0.6 -0.33333333333333337 0
-0.7333333333333334 -0.33333333333333337 0
-0.6 -0.4666666666666667 0
-0.4666666666666667 -0.4666666666666667 0
-0.4666666666666667 -0.33333333333333337 0
-0.6 -0.33333333333333337 0
-0.4666666666666667 -0.4666666666666667 0
-0.33333333333333337 -0.4666666666666667 0
-0.33333333333333337 -0.33333333333333337 0
-0.4666666666666667 -0.33333333333333337 0
-0.33333333333333337 -0.4666666666666667 0
-0.19999999999999996 -0.4666666666666667 0
-0.19999999999999996 -0.33333333333333337 0
-0.33333333333333337 -0.33333333333333337 0
-0.19999999999999996 -0.4666666666666667 0
-0.06666666666666665 -0.4666666666666667 0
-0.06666666666666665 -0.33333333333333337 0
-0.19999999999999996 -0.33333333333333337 0
-0.06666666666666665 -0.4666666666666667 0
0.06666666666666665 -0.4666666666666667 0
0.06666666666666665 -0.33333333333333337 0
-0.06666666666666665 -0.33333333333333337 0
0.06666666666666665 -0.4666666666666667 0
0.19999999999999996 -0.4666666666666667 0
0.19999999999999996 -0.33333333333333337 0
0.06666666666666665 -0.33333333333333337 0
0.19999999999999996 -0.4666666666666667 0
0.33333333333333326 -0.4666666666666667 0
0.33333333333333326 -0.33333333333333337 0
0.19999999999999996 -0.33333333333333337 0
0.33333333333333326 -0.4666666666666667 0
0.46666666666666656 -0.4666666666666667 0
0.46666666666666656 -0.33333333333333337 0
[...]
POINT_DATA 1182
SCALARS temperature double 1
LOOKUP_TABLE default
100
86.05518506288615
85.99003302294896
100
86.05518506288615
72.23028663613715
72.11556391052704
85.99003302294896
72.23028663613715
58.6165459628469
58.479684098206015
72.11556391052704
58.6165459628469
45.2560794043306
45.1277528224207
58.479684098206015
45.2560794043306
32.1370145664664
32.040100432039
45.1277528224207
32.1370145664664
19.205926641765153
19.149201988357998
32.040100432039
19.205926641765153
6.389370067760412
6.371211829550253
19.149201988357998
6.389370067760412
-6.389370070600121
-6.371211832449117
6.371211829550253
-6.389370070600121
-19.20592664448703
-19.149201991138312
-6.371211832449117
-19.20592664448703
-32.13701456895474
-32.04010043458325
-19.149201991138312
-32.13701456895474
-45.256079406475706
-45.12775282461601
-32.04010043458325
-45.256079406475706
-58.61654596455081
-58.47968409995081
-45.12775282461601
-58.61654596455081
-72.23028663732005
-72.11556391173855
-58.47968409995081
-72.23028663732005
-86.055185063492
-85.99003302356944
-72.11556391173855
-86.055185063492
-100
-100
-85.99003302356944
100
85.99003302294896
85.7782090227535
100
85.99003302294896
72.11556391052704
71.74101955128789
85.7782090227535
72.11556391052704
58.479684098206015
58.03354792714973
71.74101955128789
58.479684098206015
45.1277528224207
44.716676570948145
58.03354792714973
45.1277528224207
32.040100432039
31.742373617378764
44.716676570948145
32.040100432039
19.149201988357998
18.985777844644225
31.742373617378764
19.149201988357998
6.371211829550253
6.321840907259805
18.985777844644225
6.371211829550253
-6.371211832449117
-6.321840910336336
6.321840907259805
-6.371211832449117
-19.149201991138312
-18.985777847601607
-6.321840910336336
-19.149201991138312
-32.04010043458325
-31.74237362009424
-18.985777847601607
-32.04010043458325
-45.12775282461601
-44.71667657329835
-31.74237362009424
-45.12775282461601
-58.47968409995081
-58.03354792902034
-44.71667657329835
-58.47968409995081
-72.11556391173855
-71.74101955258665
-58.03354792902034
-72.11556391173855
-85.99003302356944
-85.7782090234181
-71.74101955258665
-85.99003302356944
-100
-100
-85.7782090234181
100
85.7782090227535
85.37171223223604
100
85.7782090227535
71.74101955128789
71.00734346502801
85.37171223223604
71.74101955128789
58.03354792714973
57.152062731453746
71.00734346502801
58.03354792714973
44.716676570948145
43.92828026732633
57.152062731453746
44.716676570948145
31.742373617378764
31.229610671610818
43.92828026732633
31.742373617378764
18.985777844644225
18.761588341682955
31.229610671610818
18.985777844644225
6.321840907259805
6.270294969274224
18.761588341682955
6.321840907259805
-6.321840910336336
-6.270294972645775
6.270294969274224
-6.321840910336336
-18.985777847601607
-18.761588344940176
-6.270294972645775
-18.985777847601607
-31.74237362009424
-31.229610674625647
-18.761588344940176
-31.74237362009424
-44.71667657329835
-43.92828026995044
-31.229610674625647
-44.71667657329835
-58.03354792902034
-57.152062733545975
-43.92828026995044
-58.03354792902034
-71.74101955258665
-71.0073434664759
-57.152062733545975
-71.74101955258665
-85.7782090234181
-85.37171223297422
-71.0073434664759
-85.7782090234181
-100
-100
-85.37171223297422
100
85.37171223223604
84.70688517967791
100
85.37171223223604
71.00734346502801
69.74024063914071
84.70688517967791
71.00734346502801
57.152062731453746
55.53507043652444
69.74024063914071
57.152062731453746
43.92828026732633
42.51432299422453
55.53507043652444
43.92828026732633
31.229610671610818
30.50257718932044
42.51432299422453
31.229610671610818
18.761588341682955
18.685288547361093
30.50257718932044
18.761588341682955
6.270294969274224
6.354942986614316
18.685288547361093
6.270294969274224
-6.270294972645775
-6.3549429903864905
6.354942986614316
-6.270294972645775
-18.761588344940176
-18.68528855104994
-6.3549429903864905
-18.761588344940176
-31.229610674625647
-30.502577192781363
-18.68528855104994
-31.229610674625647
-43.92828026995044
-42.51432299728908
-30.502577192781363
-43.92828026995044
-57.152062733545975
-55.535070438948715
-42.51432299728908
-57.152062733545975
-71.0073434664759
-69.74024064079818
-55.535070438948715
-71.0073434664759
-85.37171223297422
-84.70688518051504
-69.74024064079818
-85.37171223297422
-100
-100
-84.70688518051504
100
84.70688517967791
83.77473108328537
100
84.70688517967791
69.74024063914071
67.7610540177331
83.77473108328537
69.74024063914071
55.53507043652444
52.61306596718707
67.7610540177331
55.53507043652444
42.51432299422453
39.564193410101865
52.61306596718707
42.51432299422453
30.50257718932044
29.589723280271425
39.564193410101865
30.50257718932044
18.685288547361093
19.747610001984555
29.589723280271425
18.685288547361093
6.354942986614316
7.025960938130062
19.747610001984555
6.354942986614316
-6.3549429903864905
-7.025960942486112
7.025960938130062
-6.3549429903864905
-18.68528855104994
-19.747610005988548
-7.025960942486112
-18.68528855104994
-30.502577192781363
-29.589723284545432
-19.747610005988548
-30.502577192781363
-42.51432299728908
-39.564193413861695
-29.589723284545432
-42.51432299728908
-55.535070438948715
-52.61306597005357
-39.564193413861695
-55.535070438948715
-69.74024064079818
-67.76105401961483
-52.61306597005357
-69.74024064079818
-84.70688518051504
-83.77473108425723
-67.76105401961483
-84.70688518051504
-100
-100
-83.77473108425723
100
83.77473108328537
82.75845259276588
100
83.77473108328537
67.7610540177331
65.23121623696521
82.75845259276588
67.7610540177331
52.61306596718707
47.72877000631816
65.23121623696521
52.61306596718707
42.42018076462105
36.261247436057815
36.261247436057815
39.564193410101865
52.61306596718707
52.61306596718707
47.72877000631816
42.42018076462105
28.477407064847736
28.47740914785573
28.47755898482643
39.564193410101865
36.261247436057815
29.30681670379003
28.477168874963816
28.47717598426646
28.47740914785573
29.30681670379003
29.589723280271425
39.564193410101865
28.47740914785573
28.477407064847736
28.477168874963816
28.47717598426646
28.477168874963816
28.47693511123027
22.209247694264317
19.747610001984555
29.30681670379003
28.47692612187345
28.47693511123027
28.477168874963816
29.589723280271425
29.30681670379003
19.747610001984555
28.47693511123027
28.47692612187345
28.476765352331352
19.747610001984555
22.209247694264317
7.025960938130062
9.27791493908639
7.025960938130062
14.80654739839952
22.209247694264317
14.80654739839952
7.025960938130062
7.025960938130062
-7.025960942486112
-9.277914944072272
9.27791493908639
-7.025960942486112
-14.806547403508127
-22.20924769892695
-22.20924769892695
-19.747610005988548
-7.025960942486112
-7.025960942486112
-9.277914944072272
-14.806547403508127
-28.476926127476197
-28.476935116833012
-28.476765357934113
-19.747610005988548
-22.20924769892695
-29.30681670837082
-28.477168880566566
-28.4771759898692
-28.476935116833012
-29.30681670837082
-29.589723284545432
-19.747610005988548
-28.476935116833012
-28.476926127476197
-28.477168880566566
-28.4771759898692
-28.477168880566566
-28.47740915345846
-36.2612474404913
-39.564193413861695
-29.30681670837082
-28.477407070450475
-28.47740915345846
-28.477168880566566
-29.589723284545432
-29.30681670837082
-39.564193413861695
-36.2612474404913
-42.420180768313784
-52.61306597005357
-28.47740915345846
-28.477407070450475
-28.477558990429166
-39.564193413861695
-36.2612474404913
-52.61306597005357
-47.728770009216305
-52.61306597005357
-42.420180768313784
-52.61306597005357
-67.76105401961483
-65.23121623923228
-47.728770009216305
-67.76105401961483
-83.77473108425723
-82.75845259389745
-65.23121623923228
-83.77473108425723
-100
-100
-82.75845259389745
100
82.75845259276588
82.06565640421165
100
82.75845259276588
65.23121623696521
63.234962999931085
82.06565640421165
63.234962999931085
46.035174720892556
44.4277541253125
44.4277541253125
47.72877000631816
65.23121623696521
65.23121623696521
63.234962999931085
44.4277541253125
28.47764359138025
28.47764372773681
28.477689196466027
28.477643727736808
28.47764359138025
28.477404677274613
28.477404677274613
28.477407064847736
28.477558984826423
28.477404677274613
28.477558984826423
28.477643727736808
47.72877000631816
44.4277541253125
42.42018076462105
28.477407064847736
28.477168874963816
28.477163102896945
28.477404677274613
28.477168874963816
28.47692612187345
28.476915152022205
28.477163102896945
28.47665445863473
28.476663494424386
28.476915152022205
28.47692612187345
28.476915152022205
28.47676535233135
11.575047455244126
9.27791493908639
14.80654739839952
28.476663494424386
28.47676535233135
28.476915152022205
9.27791493908639
11.575047455244126
-11.575047460430644
-28.47665446423751
-28.47666350002716
-28.47660224359806
11.575047455244126
-8.1881707428666
-11.575047460430644
11.575047455244126
8.188170737528855
-8.1881707428666
28.476663494424386
28.47665445863473
28.47660223799527
-11.575047460430644
-9.277914944072272
9.27791493908639
-28.476663500027158
-28.47665446423751
-28.476915157624976
-28.476915157624976
-28.476926127476197
-28.47676535793411
-28.476915157624976
-28.47676535793411
-28.476663500027158
-9.277914944072272
-11.575047460430646
-14.806547403508128
-28.476926127476197
-28.477168880566566
-28.477163108499717
-28.476915157624976
-28.477168880566566
-28.477407070450475
-28.477404682877374
-28.477163108499717
-44.42775412909067
-47.728770009216305
-42.420180768313784
-28.477407070450475
-28.477404682877374
-28.477558990429166
-28.47764359698299
-28.477643733339548
-28.477404682877374
-28.477643733339548
-28.477558990429166
-28.477404682877374
-63.234963002601575
-65.23121623923228
-44.42775412909067
-44.42775412909067
-46.03517472499345
-63.234963002601575
-28.477643733339548
-28.47764359698299
-28.477689202068767
-47.728770009216305
-44.42775412909067
-65.23121623923228
-65.23121623923228
-82.75845259389745
-82.06565640547323
-63.234963002601575
-82.75845259389745
-100
-100
-82.06565640547323
100
82.06565640421165
82.06565640420469
100
82.06565640421165
63.234962999931085
63.23496299982639
82.06565640420469
28.477689196466027
28.47768919646601
28.47764359138025
46.03517472087111
46.03517472089255
63.23496299982639
63.234962999931085
63.23496299982639
46.03517472089255
28.477643591380232
28.47764359138025
28.47768919646601
28.47764359138025
28.477404677274613
28.477404677274613
28.477643591380232
28.477404677274613
28.477163102896945
28.477163102896938
28.477404677274613
28.477163102896945
28.476915152022205
28.4769151520222
28.477163102896938
28.476915152022205
28.47665445863473
28.476654458634734
28.4769151520222
-28.476654464237505
-28.47665446423751
-28.476602243598055
8.188170737528855
8.188170737386272
-8.188170742866602
8.188170737386272
-8.188170742886303
-8.188170742866602
28.476602237995277
28.47660223799527
28.47665445863473
-28.476654464237505
-28.476602243598055
-28.476602243598045
28.47665445863473
28.476654458634734
28.476602237995277
-28.47665446423751
-28.476915157624976
-28.476915157624966
-28.476654464237505
-28.476915157624976
-28.477163108499717
-28.477163108499706
-28.476915157624966
-28.477163108499717
-28.477404682877374
-28.47740468287737
-28.477163108499706
-28.477404682877374
-28.47764359698299
-28.477643596982983
-28.47740468287737
-28.47768920206876
-28.477689202068767
-28.477643596982983
-28.47764359698299
-28.477643596982983
-28.477689202068767
-63.2349630025745
-63.234963002601575
-46.03517472499446
-46.03517472499345
-46.03517472499446
-63.234963002601575
-63.234963002601575
-82.06565640547323
-82.06565640548007
-63.2349630025745
-82.06565640547323
-100
-100
-82.06565640548007
100
82.06565640420469
82.75845259273689
100
82.06565640420469
63.23496299982639
65.23121623693162
82.75845259273689
63.23496299982639
65.23121623693162
44.427754125373205
47.72877000646156
44.427754125373205
65.23121623693162
28.477643727736787
28.477643591380232
28.477689196466013
44.427754125373205
46.035174720871105
63.23496299982639
28.477407064847696
28.477404677274613
28.477558984826395
28.477643591380232
28.47764372773679
28.477404677274613
28.47764372773679
28.477558984826395
28.477404677274613
44.42775412537321
47.72877000646156
42.42018076470019
28.477404677274613
28.477163102896938
28.477168874963798
28.477407064847696
28.477163102896938
28.4769151520222
28.476926121873436
28.477168874963798
28.476663494424393
28.476654458634734
28.4769151520222
9.277914938890378
11.575047455056685
14.806547398266693
28.4769151520222
28.476926121873436
28.47676535233135
28.4769151520222
28.47676535233135
28.476663494424393
-8.188170742886307
8.188170737386274
11.575047455056685
-28.476663500027158
-28.476654464237505
-28.476602243598045
28.476654458634734
28.476663494424393
28.476602237995273
-9.277914943981513
-11.575047460380974
11.575047455056685
-11.575047460380974
-8.188170742886307
11.575047455056685
11.575047455056685
9.277914938890378
-9.277914943981513
-28.476926127476194
-28.476915157624966
-28.4767653579341
-28.476654464237505
-28.476663500027158
-28.476915157624966
-28.476663500027158
-28.4767653579341
-28.476915157624966
-11.575047460380976
-9.277914943981513
-14.806547403451045
-28.476915157624966
-28.477163108499706
-28.477168880566538
-28.476926127476194
-28.477163108499706
-28.47740468287737
-28.477407070450447
-28.477168880566538
-28.47764373333954
-28.477643596982983
-28.47740468287737
-28.47740468287737
-28.477558990429138
-28.47764373333954
-28.47740468287737
-28.477407070450447
-28.477558990429138
-47.728770009759266
-44.427754129328434
-42.42018076864809
-44.427754129328434
-47.728770009759266
-65.23121623928591
-65.23121623928591
-63.2349630025745
-44.427754129328434
-28.477643596982983
-28.47764373333954
-28.47768920206876
-63.2349630025745
-46.03517472499447
-44.427754129328434
-63.2349630025745
-82.06565640548007
-82.75845259390556
-65.23121623928591
-82.06565640548007
-100
-100
-82.75845259390556
100
82.75845259273689
83.77473108325384
100
82.75845259273689
65.23121623693162
67.76105401767865
83.77473108325384
65.23121623693162
47.72877000646156
52.61306596703676
67.76105401767865
28.477409147855706
28.477407064847696
28.477558984826395
47.72877000646156
52.61306596703676
42.42018076470019
39.56419340947587
36.261247435725366
52.61306596703676
36.261247435725366
42.42018076470019
52.61306596703676
36.261247435725366
39.56419340947587
29.30681670355373
28.47717598426644
28.477168874963798
28.477409147855706
29.589723279978397
29.30681670355373
39.56419340947587
28.477407064847696
28.477409147855706
28.477168874963798
28.477168874963798
28.47717598426644
28.476935111230254
19.747610001754097
22.20924769413864
29.30681670355373
28.476935111230254
28.476926121873436
28.477168874963798
29.30681670355373
29.589723279978397
19.747610001754097
28.476926121873436
28.476935111230254
28.47676535233135
7.025960938016944
14.806547398266694
22.20924769413864
7.025960938016944
9.277914938890378
14.806547398266694
22.20924769413864
19.747610001754097
7.025960938016944
9.277914938890378
-9.277914943981513
-7.0259609425999905
7.025960938016944
-28.476935116833
-28.476926127476194
-28.4767653579341
-9.277914943981513
-7.0259609425999905
-14.806547403451045
-19.74761000639581
-22.20924769913322
-7.0259609425999905
-22.20924769913322
-14.806547403451045
-7.0259609425999905
-22.20924769913322
-19.74761000639581
-29.306816708161172
-28.477175989869178
-28.477168880566538
-28.476935116833
-29.58972328427372
-29.306816708161172
-19.74761000639581
-28.476926127476194
-28.476935116833
-28.477168880566538
-28.477168880566538
-28.477175989869178
-28.477409153458446
-39.56419341288158
-36.26124743997931
-29.306816708161172
-28.477409153458446
-28.477407070450447
-28.477168880566538
-29.306816708161172
-29.58972328427372
-39.56419341288158
-28.477407070450447
-28.477409153458446
-28.477558990429138
-52.613065969970016
-42.42018076864809
-36.26124743997931
-52.613065969970016
-47.728770009759266
-42.42018076864809
-36.26124743997931
-39.56419341288158
-52.613065969970016
-47.728770009759266
-65.23121623928591
-67.76105401964487
-52.613065969970016
-65.23121623928591
-82.75845259390556
-83.77473108425917
-67.76105401964487
-82.75845259390556
-100
-100
-83.77473108425917
100
83.77473108325384
84.70688517963798
100
83.77473108325384
67.76105401767865
69.7402406390459
84.70688517963798
67.76105401767865
52.61306596703676
55.53507043632478
69.7402406390459
52.61306596703676
39.56419340947587
42.51432299397027
55.53507043632478
39.56419340947587
29.589723279978397
30.502577189057497
42.51432299397027
29.589723279978397
19.747610001754097
18.685288547174622
30.502577189057497
19.747610001754097
7.025960938016944
6.354942986475292
18.685288547174622
7.025960938016944
-7.0259609425999905
-6.354942990510295
6.354942986475292
-7.0259609425999905
-19.74761000639581
-18.685288551076525
-6.354942990510295
-19.74761000639581
-29.58972328427372
-30.50257719262339
-18.685288551076525
-29.58972328427372
-39.56419341288158
-42.51432299703814
-30.50257719262339
-39.56419341288158
-52.613065969970016
-55.5350704387425
-42.51432299703814
-52.613065969970016
-67.76105401964487
-69.74024064073758
-55.5350704387425
-67.76105401964487
-83.77473108425917
-84.70688518049906
-69.74024064073758
-83.77473108425917
-100
-100
-84.70688518049906
100
84.70688517963798
85.3717122321922
100
84.70688517963798
69.7402406390459
71.00734346493326
85.3717122321922
69.7402406390459
55.53507043632478
57.152062731309705
71.00734346493326
55.53507043632478
42.51432299397027
43.928280267147755
57.152062731309705
42.51432299397027
30.502577189057497
31.22961067143143
43.928280267147755
30.502577189057497
18.685288547174622
18.761588341527588
31.22961067143143
18.685288547174622
6.354942986475292
6.27029496915576
18.761588341527588
6.354942986475292
-6.354942990510295
-6.270294972716405
6.27029496915576
-6.354942990510295
-18.685288551076525
-18.761588344941636
-6.270294972716405
-18.685288551076525
-30.50257719262339
-31.229610674550862
-18.761588344941636
-30.50257719262339
-42.51432299703814
-43.92828026982886
-31.229610674550862
-42.51432299703814
-55.5350704387425
-57.15206273343406
-43.92828026982886
-55.5350704387425
-69.74024064073758
-71.00734346640479
-57.15206273343406
-69.74024064073758
-84.70688518049906
-85.37171223294605
-71.00734346640479
-84.70688518049906
-100
-100
-85.37171223294605
100
85.3717122321922
85.77820902271267
100
85.3717122321922
71.00734346493326
71.74101955120753
85.77820902271267
71.00734346493326
57.152062731309705
58.03354792703531
71.74101955120753
57.152062731309705
43.928280267147755
44.71667657081276
58.03354792703531
43.928280267147755
31.22961067143143
31.742373617240297
44.71667657081276
31.22961067143143
18.761588341527588
18.985777844520623
31.742373617240297
18.761588341527588
6.27029496915576
6.321840907165218
18.985777844520623
6.27029496915576
-6.270294972716405
-6.321840910390565
6.321840907165218
-6.270294972716405
-18.761588344941636
-18.985777847608475
-6.321840910390565
-18.761588344941636
-31.229610674550862
-31.742373620056597
-18.985777847608475
-31.229610674550862
-43.92828026982886
-44.716676573233244
-31.742373620056597
-43.92828026982886
-57.15206273343406
-58.03354792895206
-44.716676573233244
-57.15206273343406
-71.00734346640479
-71.74101955253522
-58.03354792895206
-71.00734346640479
-85.37171223294605
-85.77820902339184
-71.74101955253522
-85.37171223294605
-100
-100
-85.77820902339184
100
85.77820902271267
85.99003302291217
100
85.77820902271267
71.74101955120753
72.11556391045642
85.99003302291217
71.74101955120753
58.03354792703531
58.47968409810831
72.11556391045642
58.03354792703531
44.71667657081276
45.12775282230673
58.47968409810831
44.71667657081276
31.742373617240297
32.04010043192247
45.12775282230673
31.742373617240297
18.985777844520623
19.149201988253044
32.04010043192247
18.985777844520623
6.321840907165218
6.371211829469211
19.149201988253044
6.321840907165218
-6.321840910390565
-6.371211832497499
6.371211829469211
-6.321840910390565
-18.985777847608475
-19.149201991150676
-6.371211832497499
-18.985777847608475
-31.742373620056597
-32.04010043456356