# vtk DataFile Version 4.1
Header:
ASCII

DATASET UNSTRUCTURED_GRID
POINTS 256 double
-1 -1 0
-0.8666666666666667 -1 0
-0.7333333333333334 -1 0
-0.6 -1 0
-0.4666666666666667 -1 0
-0.33333333333333337 -1 0
-0.19999999999999996 -1 0
-0.06666666666666665 -1 0
0.06666666666666665 -1 0
0.19999999999999996 -1 0
0.33333333333333326 -1 0
0.46666666666666656 -1 0
0.6000000000000001 -1 0
0.7333333333333334 -1 0
0.8666666666666667 -1 0
1 -1 0
-1 -0.8666666666666667 0
-0.8666666666666667 -0.8666666666666667 0
-0.7333333333333334 -0.8666666666666667 0
-0.6 -0.8666666666666667 0
-0.4666666666666667 -0.8666666666666667 0
-0.33333333333333337 -0.8666666666666667 0
-0.19999999999999996 -0.8666666666666667 0
-0.06666666666666665 -0.8666666666666667 0
0.06666666666666665 -0.8666666666666667 0
0.19999999999999996 -0.8666666666666667 0
0.33333333333333326 -0.8666666666666667 0
0.46666666666666656 -0.8666666666666667 0
0.6000000000000001 -0.8666666666666667 0
0.7333333333333334 -0.8666666666666667 0
0.8666666666666667 -0.8666666666666667 0
1 -0.8666666666666667 0
-1 -0.7333333333333334 0
-0.8666666666666667 -0.7333333333333334 0
-0.7333333333333334 -0.7333333333333334 0
-0.6 -0.7333333333333334 0
-0.4666666666666667 -0.7333333333333334 0
-0.33333333333333337 -0.7333333333333334 0
-0.19999999999999996 -0.7333333333333334 0
-0.06666666666666665 -0.7333333333333334 0
0.06666666666666665 -0.7333333333333334 0
0.19999999999999996 -0.7333333333333334 0
0.33333333333333326 -0.7333333333333334 0
0.46666666666666656 -0.7333333333333334 0
0.6000000000000001 -0.7333333333333334 0
0.7333333333333334 -0.7333333333333334 0
0.8666666666666667 -0.7333333333333334 0
1 -0.7333333333333334 0
-1 -0.6 0
-0.8666666666666667 -0.6 0
-0.7333333333333334 -0.6 0
-0.6 -0.6 0
-0.4666666666666667 -0.6 0
-0.33333333333333337 -0.6 0
-0.19999999999999996 -0.6 0
-0.06666666666666665 -0.6 0
0.06666666666666665 -0.6 0
0.19999999999999996 -0.6 0
0.33333333333333326 -0.6 0
0.46666666666666656 -0.6 0
0.6000000000000001 -0.6 0
0.7333333333333334 -0.6 0
0.8666666666666667 -0.6 0
1 -0.6 0
-1 -0.4666666666666667 0
-0.8666666666666667 -0.4666666666666667 0
-0.7333333333333334 -0.4666666666666667 0
-0.6 -0.4666666666666667 0
-0.4666666666666667 -0.4666666666666667 0
-0.33333333333333337 -0.4666666666666667 0
-0.19999999999999996 -0.4666666666666667 0
-0.06666666666666665 -0.4666666666666667 0
0.06666666666666665 -0.4666666666666667 0
0.19999999999999996 -0.4666666666666667 0
0.33333333333333326 -0.4666666666666667 0
0.46666666666666656 -0.4666666666666667 0
0.6000000000000001 -0.4666666666666667 0
0.7333333333333334 -0.4666666666666667 0
0.8666666666666667 -0.4666666666666667 0
1 -0.4666666666666667 0
-1 -0.33333333333333337 0
-0.8666666666666667 -0.33333333333333337 0
-0.7333333333333334 -0.33333333333333337 0
-0.6 -0.33333333333333337 0
-0.4666666666666667 -0.33333333333333337 0
-0.33333333333333337 -0.33333333333333337 0
-0.19999999999999996 -0.33333333333333337 0
-0.06666666666666665 -0.33333333333333337 0
0.06666666666666665 -0.33333333333333337 0
0.19999999999999996 -0.33333333333333337 0
0.33333333333333326 -0.33333333333333337 0
0.46666666666666656 -0.33333333333333337 0
0.6000000000000001 -0.33333333333333337 0
0.7333333333333334 -0.33333333333333337 0
0.8666666666666667 -0.33333333333333337 0
1 -0.33333333333333337 0
-1 -0.19999999999999996 0
-0.8666666666666667 -0.19999999999999996 0
-0.7333333333333334 -0.19999999999999996 0
-0.6 -0.19999999999999996 0
-0.4666666666666667 -0.19999999999999996 0
-0.33333333333333337 -0.19999999999999996 0
-0.19999999999999996 -0.19999999999999996 0
-0.06666666666666665 -0.19999999999999996 0
0.06666666666666665 -0.19999999999999996 0
0.19999999999999996 -0.19999999999999996 0
0.33333333333333326 -0.19999999999999996 0
0.46666666666666656 -0.19999999999999996 0
0.6000000000000001 -0.19999999999999996 0
0.7333333333333334 -0.19999999999999996 0
0.8666666666666667 -0.19999999999999996 0
1 -0.19999999999999996 0
-1 -0.06666666666666665 0
-0.8666666666666667 -0.06666666666666665 0
-0.7333333333333334 -0.06666666666666665 0
-0.6 -0.06666666666666665 0
-0.4666666666666667 -0.06666666666666665 0
-0.33333333333333337 -0.06666666666666665 0
-0.19999999999999996 -0.06666666666666665 0
-0.06666666666666665 -0.06666666666666665 0
0.06666666666666665 -0.06666666666666665 0
0.19999999999999996 -0.06666666666666665 0
0.33333333333333326 -0.06666666666666665 0
0.46666666666666656 -0.06666666666666665 0
0.6000000000000001 -0.06666666666666665 0
0.7333333333333334 -0.06666666666666665 0
0.8666666666666667 -0.06666666666666665 0
1 -0.06666666666666665 0
-1 0.06666666666666665 0
-0.8666666666666667 0.06666666666666665 0
-0.7333333333333334 0.06666666666666665 0
-0.6 0.06666666666666665 0
-0.4666666666666667 0.06666666666666665 0
-0.33333333333333337 0.06666666666666665 0
-0.19999999999999996 0.06666666666666665 0
-0.06666666666666665 0.06666666666666665 0
0.06666666666666665 0.06666666666666665 0
0.19999999999999996 0.06666666666666665 0
0.33333333333333326 0.06666666666666665 0
0.46666666666666656 0.06666666666666665 0
0.6000000000000001 0.06666666666666665 0
0.7333333333333334 0.06666666666666665 0
0.8666666666666667 0.06666666666666665 0
1 0.06666666666666665 0
-1 0.19999999999999996 0
-0.8666666666666667 0.19999999999999996 0
-0.7333333333333334 0.19999999999999996 0
-0.6 0.19999999999999996 0
-0.4666666666666667 0.19999999999999996 0
-0.33333333333333337 0.19999999999999996 0
-0.19999999999999996 0.19999999999999996 0
-0.06666666666666665 0.19999999999999996 0
0.06666666666666665 0.19999999999999996 0
0.19999999999999996 0.19999999999999996 0
0.33333333333333326 0.19999999999999996 0
0.46666666666666656 0.19999999999999996 0
0.6000000000000001 0.19999999999999996 0
0.7333333333333334 0.19999999999999996 0
0.8666666666666667 0.19999999999999996 0
1 0.19999999999999996 0
-1 0.33333333333333326 0
-0.8666666666666667 0.33333333333333326 0
-0.7333333333333334 0.33333333333333326 0
-0.6 0.33333333333333326 0
-0.4666666666666667 0.33333333333333326 0
-0.33333333333333337 0.33333333333333326 0
-0.19999999999999996 0.33333333333333326 0
-0.06666666666666665 0.33333333333333326 0
0.06666666666666665 0.33333333333333326 0
0.19999999999999996 0.33333333333333326 0
0.33333333333333326 0.33333333333333326 0
0.46666666666666656 0.33333333333333326 0
0.6000000000000001 0.33333333333333326 0
0.7333333333333334 0.33333333333333326 0
0.8666666666666667 0.33333333333333326 0
1 0.33333333333333326 0
-1 0.46666666666666656 0
-0.8666666666666667 0.46666666666666656 0
-0.7333333333333334 0.46666666666666656 0
-0.6 0.46666666666666656 0
-0.4666666666666667 0.46666666666666656 0
-0.33333333333333337 0.46666666666666656 0
-0.19999999999999996 0.46666666666666656 0
-0.06666666666666665 0.46666666666666656 0
0.06666666666666665 0.46666666666666656 0
0.19999999999999996 0.46666666666666656 0
0.33333333333333326 0.46666666666666656 0
0.46666666666666656 0.46666666666666656 0
0.6000000000000001 0.46666666666666656 0
0.7333333333333334 0.46666666666666656 0
0.8666666666666667 0.46666666666666656 0
1 0.46666666666666656 0
-1 0.6000000000000001 0
-0.8666666666666667 0.6000000000000001 0
-0.7333333333333334 0.6000000000000001 0
-0.6 0.6000000000000001 0
-0.4666666666666667 0.6000000000000001 0
-0.33333333333333337 0.6000000000000001 0
-0.19999999999999996 0.6000000000000001 0
-0.06666666666666665 0.6000000000000001 0
0.06666666666666665 0.6000000000000001 0
0.19999999999999996 0.6000000000000001 0
0.33333333333333326 0.6000000000000001 0
0.46666666666666656 0.6000000000000001 0
0.6000000000000001 0.6000000000000001 0
0.7333333333333334 0.6000000000000001 0
0.8666666666666667 0.6000000000000001 0
1 0.6000000000000001 0
-1 0.7333333333333334 0
-0.8666666666666667 0.7333333333333334 0
-0.7333333333333334 0.7333333333333334 0
-0.6 0.7333333333333334 0
-0.4666666666666667 0.7333333333333334 0
-0.33333333333333337 0.7333333333333334 0
-0.19999999999999996 0.7333333333333334 0
-0.06666666666666665 0.7333333333333334 0
0.06666666666666665 0.7333333333333334 0
0.19999999999999996 0.7333333333333334 0
0.33333333333333326 0.7333333333333334 0
0.46666666666666656 0.7333333333333334 0
0.6000000000000001 0.7333333333333334 0
0.7333333333333334 0.7333333333333334 0
0.8666666666666667 0.7333333333333334 0
1 0.7333333333333334 0
-1 0.8666666666666667 0
-0.8666666666666667 0.8666666666666667 0
-0.7333333333333334 0.8666666666666667 0
-0.6 0.8666666666666667 0
-0.4666666666666667 0.8666666666666667 0
-0.33333333333333337 0.8666666666666667 0
-0.19999999999999996 0.8666666666666667 0
-0.06666666666666665 0.8666666666666667 0
0.06666666666666665 0.8666666666666667 0
0.19999999999999996 0.8666666666666667 0
0.33333333333333326 0.8666666666666667 0
0.46666666666666656 0.8666666666666667 0
0.6000000000000001 0.8666666666666667 0
0.7333333333333334 0.8666666666666667 0
0.8666666666666667 0.8666666666666667 0
1 0.8666666666666667 0
-1 1 0
-0.8666666666666667 1 0
-0.7333333333333334 1 0
-0.6 1 0
-0.4666666666666667 1 0
-0.33333333333333337 1 0
-0.19999999999999996 1 0
-0.06666666666666665 1 0
0.06666666666666665 1 0
0.19999999999999996 1 0
0.33333333333333326 1 0
0.46666666666666656 1 0
0.6000000000000001 1 0
0.7333333333333334 1 0
0.8666666666666667 1 0
1 1 0


POINT_DATA 256
SCALARS temperature double 1
LOOKUP_TABLE default
100
86.05518506288615
72.23028663613715
58.6165459628469
45.2560794043306
32.1370145664664
19.205926641765153
6.389370067760412
-6.389370070600121
-19.20592664448703
-32.13701456895474
-45.256079406475706
-58.61654596455081
-72.23028663732005
-86.055185063492
-100
100
85.99003302294896
72.11556391052704
58.479684098206015
45.1277528224207
32.040100432039
19.149201988357998
6.371211829550253
-6.371211832449117
-19.149201991138312
-32.04010043458325
-45.12775282461601
-58.47968409995081
-72.11556391173855
-85.99003302356944
-100
100
85.7782090227535
71.74101955128789
58.03354792714973
44.716676570948145
31.742373617378764
18.985777844644225
6.321840907259805
-6.321840910336336
-18.985777847601607
-31.74237362009424
-44.71667657329835
-58.03354792902034
-71.74101955258665
-85.7782090234181
-100
100
85.37171223223604
71.00734346502801
57.152062731453746
43.92828026732633
31.229610671610818
18.761588341682955
6.270294969274224
-6.270294972645775
-18.761588344940176
-31.229610674625647
-43.92828026995044
-57.152062733545975
-71.0073434664759
-85.37171223297422
-100
100
84.70688517967791
69.74024063914071
55.53507043652444
42.51432299422453
30.50257718932044
18.685288547361093
6.354942986614316
-6.3549429903864905
-18.68528855104994
-30.502577192781363
-42.51432299728908
-55.535070438948715
-69.74024064079818
-84.70688518051504
-100
100
83.77473108328537
67.7610540177331
52.61306596718707
39.564193410101865
29.589723280271425
19.747610001984555
7.025960938130062
-7.025960942486112
-19.747610005988548
-29.589723284545432
-39.564193413861695
-52.61306597005357
-67.76105401961483
-83.77473108425723
-100
100
82.75845259276588
65.23121623696521
47.72877000631816
28.477407064847736
28.477168874963816
28.47692612187345
9.27791493908639
-9.277914944072272
-28.476926127476197
-28.477168880566566
-28.477407070450475
-47.728770009216305
-65.23121623923228
-82.75845259389745
-100
100
82.06565640421165
63.234962999931085
28.47764359138025
28.477404677274613
28.477163102896945
28.476915152022205
28.47665445863473
-28.47665446423751
-28.476915157624976
-28.477163108499717
-28.477404682877374
-28.47764359698299
-63.234963002601575
-82.06565640547323
-100
100
82.06565640420469
63.23496299982639
28.477643591380232
28.477404677274613
28.477163102896938
28.4769151520222
28.476654458634734
-28.476654464237505
-28.476915157624966
-28.477163108499706
-28.47740468287737
-28.477643596982983
-63.2349630025745
-82.06565640548007
-100
100
82.75845259273689
65.23121623693162
47.72877000646156
28.477407064847696
28.477168874963798
28.476926121873436
9.277914938890378
-9.277914943981513
-28.476926127476194
-28.477168880566538
-28.477407070450447
-47.728770009759266
-65.23121623928591
-82.75845259390556
-100
100
83.77473108325384
67.76105401767865
52.61306596703676
39.56419340947587
29.589723279978397
19.747610001754097
7.025960938016944
-7.0259609425999905
-19.74761000639581
-29.58972328427372
-39.56419341288158
-52.613065969970016
-67.76105401964487
-83.77473108425917
-100
100
84.70688517963798
69.7402406390459
55.53507043632478
42.51432299397027
30.502577189057497
18.685288547174622
6.354942986475292
-6.354942990510295
-18.685288551076525
-30.50257719262339
-42.51432299703814
-55.5350704387425
-69.74024064073758
-84.70688518049906
-100
100
85.3717122321922
71.00734346493326
57.152062731309705
43.928280267147755
31.22961067143143
18.761588341527588
6.27029496915576
-6.270294972716405
-18.761588344941636
-31.229610674550862
-43.92828026982886
-57.15206273343406
-71.00734346640479
-85.37171223294605
-100
100
85.77820902271267
71.74101955120753
58.03354792703531
44.71667657081276
31.742373617240297
18.985777844520623
6.321840907165218
-6.321840910390565
-18.985777847608475
-31.742373620056597
-44.716676573233244
-58.03354792895206
-71.74101955253522
-85.77820902339184
-100
100
85.99003302291217
72.11556391045642
58.47968409810831
45.12775282230673
32.04010043192247
19.149201988253044
6.371211829469211
-6.371211832497499
-19.149201991150676
-32.04010043456356
-45.12775282457546
-58.47968409990451
-72.1155639117003
-85.99003302354834
-100
100
86.0551850628509
72.23028663606992
58.61654596275452
45.256079404223286
32.137014566356754
19.20592664166622
6.389370067683593
-6.389370070646961
-19.20592664450135
-32.13701456894038
-45.25607940644229
-58.61654596451115
-72.2302866372863
-86.05518506347295
-100

