# vtk DataFile Version 4.1
Header:
ASCII

DATASET UNSTRUCTURED_GRID
POINTS 1182 double
-0.9718233512793084 -0.9718233512793084 0
-0.8948433153873585 -0.9718233512793084 0
-0.9718233512793084 -0.8948433153873584 0
-0.8948433153873583 -0.8948433153873584 0
-0.8384900179459752 -0.9718233512793084 0
-0.761509982054025 -0.9718233512793084 0
-0.8384900179459751 -0.8948433153873584 0
-0.7615099820540251 -0.8948433153873584 0
-0.7051566846126418 -0.9718233512793084 0
-0.6281766487206917 -0.9718233512793084 0
-0.7051566846126418 -0.8948433153873584 0
-0.6281766487206917 -0.8948433153873584 0
-0.5718233512793084 -0.9718233512793084 0
-0.4948433153873583 -0.9718233512793084 0
-0.5718233512793084 -0.8948433153873584 0
-0.49484331538735826 -0.8948433153873584 0
-0.4384900179459751 -0.9718233512793084 0
-0.361509982054025 -0.9718233512793084 0
-0.4384900179459751 -0.8948433153873584 0
-0.361509982054025 -0.8948433153873584 0
-0.3051566846126417 -0.9718233512793084 0
-0.2281766487206916 -0.9718233512793084 0
-0.3051566846126418 -0.8948433153873584 0
-0.2281766487206916 -0.8948433153873584 0
-0.17182335127930834 -0.9718233512793084 0
-0.09484331538735827 -0.9718233512793084 0
-0.17182335127930837 -0.8948433153873584 0
-0.09484331538735827 -0.8948433153873584 0
-0.038490017945975036 -0.9718233512793084 0
0.03849001794597504 -0.9718233512793084 0
-0.03849001794597504 -0.8948433153873584 0
0.038490017945975036 -0.8948433153873584 0
0.09484331538735827 -0.9718233512793084 0
0.17182335127930834 -0.9718233512793084 0
0.09484331538735827 -0.8948433153873584 0
0.17182335127930834 -0.8948433153873584 0
0.22817664872069157 -0.9718233512793084 0
0.3051566846126417 -0.9718233512793084 0
0.2281766487206916 -0.8948433153873584 0
0.30515668461264167 -0.8948433153873584 0
0.36150998205402496 -0.9718233512793084 0
0.43849001794597503 -0.9718233512793084 0
0.3615099820540249 -0.8948433153873584 0
0.438490017945975 -0.8948433153873584 0
0.49484331538735826 -0.9718233512793084 0
0.5718233512793084 -0.9718233512793084 0
0.49484331538735826 -0.8948433153873584 0
0.5718233512793084 -0.8948433153873584 0
0.6281766487206917 -0.9718233512793084 0
0.7051566846126418 -0.9718233512793084 0
0.6281766487206917 -0.8948433153873584 0
0.7051566846126417 -0.8948433153873584 0
0.761509982054025 -0.9718233512793084 0
0.8384900179459751 -0.9718233512793084 0
0.761509982054025 -0.8948433153873584 0
0.8384900179459751 -0.8948433153873584 0
0.8948433153873585 -0.9718233512793084 0
0.9718233512793085 -0.9718233512793084 0
0.8948433153873584 -0.8948433153873584 0
0.9718233512793085 -0.8948433153873584 0
-0.9718233512793084 -0.8384900179459751 0
-0.8948433153873585 -0.8384900179459751 0
-0.9718233512793084 -0.761509982054025 0
-0.8948433153873583 -0.761509982054025 0
-0.8384900179459752 -0.8384900179459751 0
-0.761509982054025 -0.8384900179459751 0
-0.8384900179459751 -0.761509982054025 0
-0.7615099820540251 -0.761509982054025 0
-0.7051566846126418 -0.8384900179459751 0
-0.6281766487206917 -0.8384900179459751 0
-0.7051566846126418 -0.761509982054025 0
-0.6281766487206917 -0.761509982054025 0
-0.5718233512793084 -0.8384900179459751 0
-0.4948433153873583 -0.8384900179459751 0
-0.5718233512793084 -0.761509982054025 0
-0.49484331538735826 -0.761509982054025 0
-0.4384900179459751 -0.8384900179459751 0
-0.361509982054025 -0.8384900179459751 0
-0.4384900179459751 -0.761509982054025 0
-0.361509982054025 -0.761509982054025 0
-0.3051566846126417 -0.8384900179459751 0
-0.2281766487206916 -0.8384900179459751 0
-0.3051566846126418 -0.761509982054025 0
-0.2281766487206916 -0.761509982054025 0
-0.17182335127930834 -0.8384900179459751 0
-0.09484331538735827 -0.8384900179459751 0
-0.17182335127930837 -0.761509982054025 0
-0.09484331538735827 -0.761509982054025 0
-0.038490017945975036 -0.8384900179459751 0
0.03849001794597504 -0.8384900179459751 0
-0.03849001794597504 -0.761509982054025 0
0.038490017945975036 -0.761509982054025 0
0.09484331538735827 -0.8384900179459751 0
0.17182335127930834 -0.8384900179459751 0
0.09484331538735827 -0.761509982054025 0
0.17182335127930834 -0.761509982054025 0
0.22817664872069157 -0.8384900179459751 0
0.3051566846126417 -0.8384900179459751 0
0.2281766487206916 -0.761509982054025 0
0.30515668461264167 -0.761509982054025 0
0.36150998205402496 -0.8384900179459751 0
0.43849001794597503 -0.8384900179459751 0
0.3615099820540249 -0.761509982054025 0
0.438490017945975 -0.761509982054025 0
0.49484331538735826 -0.8384900179459751 0
0.5718233512793084 -0.8384900179459751 0
0.49484331538735826 -0.761509982054025 0
0.5718233512793084 -0.761509982054025 0
0.6281766487206917 -0.8384900179459751 0
0.7051566846126418 -0.8384900179459751 0
0.6281766487206917 -0.761509982054025 0
0.7051566846126417 -0.761509982054025 0
0.761509982054025 -0.8384900179459751 0
0.8384900179459751 -0.8384900179459751 0
0.761509982054025 -0.761509982054025 0
0.8384900179459751 -0.761509982054025 0
0.8948433153873585 -0.8384900179459751 0
0.9718233512793085 -0.8384900179459751 0
0.8948433153873584 -0.761509982054025 0
0.9718233512793085 -0.761509982054025 0
-0.9718233512793084 -0.7051566846126418 0
-0.8948433153873585 -0.7051566846126418 0
-0.9718233512793084 -0.6281766487206917 0
-0.8948433153873583 -0.6281766487206916 0
-0.8384900179459752 -0.7051566846126418 0
-0.761509982054025 -0.7051566846126418 0
-0.8384900179459751 -0.6281766487206917 0
-0.7615099820540251 -0.6281766487206916 0
-0.7051566846126418 -0.7051566846126418 0
-0.6281766487206917 -0.7051566846126418 0
-0.7051566846126418 -0.6281766487206917 0
-0.6281766487206917 -0.6281766487206916 0
-0.5718233512793084 -0.7051566846126418 0
-0.4948433153873583 -0.7051566846126418 0
-0.5718233512793084 -0.6281766487206917 0
-0.49484331538735826 -0.6281766487206916 0
-0.4384900179459751 -0.7051566846126418 0
-0.361509982054025 -0.7051566846126418 0
-0.4384900179459751 -0.6281766487206917 0
-0.361509982054025 -0.6281766487206916 0
-0.3051566846126417 -0.7051566846126418 0
-0.2281766487206916 -0.7051566846126418 0
-0.3051566846126418 -0.6281766487206917 0
-0.2281766487206916 -0.6281766487206916 0
-0.17182335127930834 -0.7051566846126418 0
-0.09484331538735827 -0.7051566846126418 0
-0.17182335127930837 -0.6281766487206917 0
-0.09484331538735827 -0.6281766487206916 0
-0.038490017945975036 -0.7051566846126418 0
0.03849001794597504 -0.7051566846126418 0
-0.03849001794597504 -0.6281766487206917 0
0.038490017945975036 -0.6281766487206916 0
0.09484331538735827 -0.7051566846126418 0
0.17182335127930834 -0.7051566846126418 0
0.09484331538735827 -0.6281766487206917 0
0.17182335127930834 -0.6281766487206916 0
0.22817664872069157 -0.7051566846126418 0
0.3051566846126417 -0.7051566846126418 0
0.2281766487206916 -0.6281766487206917 0
0.30515668461264167 -0.6281766487206916 0
0.36150998205402496 -0.7051566846126418 0
0.43849001794597503 -0.7051566846126418 0
0.3615099820540249 -0.6281766487206917 0
0.438490017945975 -0.6281766487206916 0
0.49484331538735826 -0.7051566846126418 0
0.5718233512793084 -0.7051566846126418 0
0.49484331538735826 -0.6281766487206917 0
0.5718233512793084 -0.6281766487206916 0
0.6281766487206917 -0.7051566846126418 0
0.7051566846126418 -0.7051566846126418 0
0.6281766487206917 -0.6281766487206917 0
0.7051566846126417 -0.6281766487206916 0
0.761509982054025 -0.7051566846126418 0
0.8384900179459751 -0.7051566846126418 0
0.761509982054025 -0.6281766487206917 0
0.8384900179459751 -0.6281766487206916 0
0.8948433153873585 -0.7051566846126418 0
0.9718233512793085 -0.7051566846126418 0
0.8948433153873584 -0.6281766487206917 0
0.9718233512793085 -0.6281766487206916 0
-0.9718233512793084 -0.5718233512793084 0
-0.8948433153873585 -0.5718233512793084 0
-0.9718233512793084 -0.4948433153873583 0
-0.8948433153873583 -0.4948433153873583 0
-0.8384900179459752 -0.5718233512793084 0
-0.761509982054025 -0.5718233512793084 0
-0.8384900179459751 -0.4948433153873583 0
-0.7615099820540251 -0.4948433153873583 0
-0.7051566846126418 -0.5718233512793084 0
-0.6281766487206917 -0.5718233512793084 0
-0.7051566846126418 -0.4948433153873583 0
-0.6281766487206917 -0.4948433153873583 0
-0.5718233512793084 -0.5718233512793084 0
-0.4948433153873583 -0.5718233512793084 0
-0.5718233512793084 -0.4948433153873583 0
-0.49484331538735826 -0.4948433153873583 0
-0.4384900179459751 -0.5718233512793084 0
-0.361509982054025 -0.5718233512793084 0
-0.4384900179459751 -0.4948433153873583 0
-0.361509982054025 -0.4948433153873583 0
-0.3051566846126417 -0.5718233512793084 0
-0.2281766487206916 -0.5718233512793084 0
-0.3051566846126418 -0.4948433153873583 0
-0.2281766487206916 -0.4948433153873583 0
-0.17182335127930834 -0.5718233512793084 0
-0.09484331538735827 -0.5718233512793084 0
-0.17182335127930837 -0.4948433153873583 0
-0.09484331538735827 -0.4948433153873583 0
-0.038490017945975036 -0.5718233512793084 0
0.03849001794597504 -0.5718233512793084 0
-0.03849001794597504 -0.4948433153873583 0
0.038490017945975036 -0.4948433153873583 0
0.09484331538735827 -0.5718233512793084 0
0.17182335127930834 -0.5718233512793084 0
0.09484331538735827 -0.4948433153873583 0
0.17182335127930834 -0.4948433153873583 0
0.22817664872069157 -0.5718233512793084 0
0.3051566846126417 -0.5718233512793084 0
0.2281766487206916 -0.4948433153873583 0
0.30515668461264167 -0.4948433153873583 0
0.36150998205402496 -0.5718233512793084 0
0.43849001794597503 -0.5718233512793084 0
0.3615099820540249 -0.4948433153873583 0
0.438490017945975 -0.4948433153873583 0
0.49484331538735826 -0.5718233512793084 0
0.5718233512793084 -0.5718233512793084 0
0.49484331538735826 -0.4948433153873583 0
0.5718233512793084 -0.4948433153873583 0
0.6281766487206917 -0.5718233512793084 0
0.7051566846126418 -0.5718233512793084 0
0.6281766487206917 -0.4948433153873583 0
0.7051566846126417 -0.4948433153873583 0
0.761509982054025 -0.5718233512793084 0
0.8384900179459751 -0.5718233512793084 0
0.761509982054025 -0.4948433153873583 0
0.8384900179459751 -0.4948433153873583 0
0.8948433153873585 -0.5718233512793084 0
0.9718233512793085 -0.5718233512793084 0
[...]
POINT_DATA 1182
SCALARS temperature double 1
LOOKUP_TABLE default
97.05020428756646
88.99121252924913
97.04225518699131
88.96154608202826
83.11765828001006
75.12980140839419
83.07399468880097
75.06961425529413
69.32813226207377
61.465534257237486
69.2591959031262
61.38921818527967
55.764606020846095
48.05197843355705
55.68663016322323
47.976847670177854
42.45797901889955
34.88751598783371
42.387722216880896
34.82773000164256
29.38566857465314
21.924804937418262
29.334618630059307
21.887151486497846
16.487204525693713
9.092267566839675
16.459159961011068
9.077078473889362
3.6866890691465724
-3.6866890719987824
3.6806363230693027
-3.680636325955666
-9.092267569666951
-16.48720452845287
-9.077078476750705
-16.459159963804055
-21.924804940103026
-29.385668577202757
-21.887151489216038
-29.33461863264152
-34.88751599026108
-42.457979021128054
-34.82773000410151
-42.38772221913908
-48.05197843561912
-55.7646060226523
-47.976847672267766
-55.68663016505417
-61.465534258839384
-69.32813226337336
-61.389218186903676
-69.25919590444381
-75.12980140946055
-83.11765828074158
-75.0696142563753
-83.07399468954263
-88.99121252972938
-97.05020428769512
-88.96154608251518
-97.04225518712178
97.02988593594526
88.91538340867281
97.00404161421099
88.8189310868734
83.00598222873411
74.97570049010652
82.8638323234928
74.77931046518398
69.15161574684234
61.27020205928539
68.92663765293614
61.02136002810683
55.56537506500705
47.86091155580512
55.31207583362657
47.619298964285875
42.280197790715775
34.737867751194635
42.05669239739662
34.55214550347959
29.259013689810825
21.83283606637631
29.103507096342604
21.722097029890243
16.419452764153966
9.055992165072055
16.339015249596866
9.013572390989395
3.6723971936455735
-3.672397196581983
3.6559402195270807
-3.655940222566066
-9.055992167983387
-16.419452766996777
-9.01357239400323
-16.33901525254198
-21.832836069143895
-29.259013692441414
-21.72209703275935
-29.10350709907276
-34.737867753700606
-42.28019779301829
-34.552145506082425
-42.056692399790556
-47.86091155793665
-55.56537506687494
-47.619298966503294
-55.31207583557064
-61.27020206094236
-69.15161574818669
-61.02136002983172
-68.92663765433558
-74.97570049120965
-83.00598222949074
-74.77931046633222
-82.86383232428015
-88.91538340916952
-97.02988593607836
-88.81893108739021
-97.00404161434949
96.97642852145518
88.71587762175457
96.92683247082644
88.53078264095335
82.71128772947279
74.566993964845
82.43667805343148
74.18332452355621
68.68264506650704
60.7505986714136
68.24102301761879
60.259706919379965
55.03723932208773
47.360097692924214
54.53967124016907
46.893559241696956
41.820585292084154
34.363497592994754
41.39903407766163
34.03382416452352
28.951115342337598
21.621299742647665
28.69027992120961
21.456655469121895
16.26990620994875
8.979442787009747
16.16153431692491
8.928618748977804
3.643627507995574
-3.64362751113445
3.6264455286310517
-3.6264455319402575
-8.97944279012366
-16.26990621299446
-8.928618752262633
-16.161534320143144
-21.621299745617268
-28.951115345167484
-21.45665547226455
-28.690279924212373
-34.363497595695165
-41.82058529457058
-34.03382416739366
-41.39903408030929
-47.36009769522862
-55.037239324108846
-46.89355924415312
-54.53967124232453
-60.75059867320695
-68.6826450679614
-60.25970692129244
-68.2410230191681
-74.56699396603788
-82.71128773029032
-74.18332452482598
-82.4366780543007
-88.71587762229099
-96.97642852159892
-88.53078264152327
-96.92683247097915
96.87898907772906
88.35222866710741
96.79787454760924
88.04950511946825
82.16877289729501
73.8020179784343
81.71145207516193
73.14393856519145
67.7959823612742
59.75394282198525
67.02173072559522
58.86306136329227
54.024905181343044
46.41492280792295
53.11610623653699
45.573802203726075
40.97660807292816
33.72883828279199
40.24406997998051
33.22527478678147
28.47022787244302
21.351206844295174
28.129869916031065
21.227760117206056
16.112931046616193
8.920716451446687
16.088516335742618
8.949951011127094
3.6304842625872658
-3.630484266043479
3.658700268318417
-3.6587002720059303
-8.920716454880123
-16.112931049987402
-8.949951014795614
-16.088516339359245
-21.35120684759303
-28.470227875602692
-21.22776012075488
-28.12986991944653
-33.72883828581827
-40.97660807572817
-33.22527479006462
-40.24406998303549
-46.4149228105229
-54.024905183622685
-45.57380220656708
-53.116106239021555
-59.75394282400601
-67.79598236290802
-58.8630613654898
-67.02173072736497
-73.80201797977155
-82.16877289820904
-73.14393856663622
-81.71145207614656
-88.35222866770609
-96.87898907788947
-88.04950512011197
-96.79787454778173
96.72655624607775
87.78334159464313
96.61282555290396
87.35889286933849
81.30031511103675
72.53157202244412
80.63438885831027
71.51663492804596
66.27797906480728
57.9615884632811
65.02026337499987
56.3896001574971
52.16471451764378
44.64375097461654
50.4742629485333
42.94392436724429
39.44348775341186
32.757067963376144
37.98879452773738
31.98146662939288
27.90058930207407
21.318862643558433
27.614540971964917
21.691206101340104
16.286599960143317
9.11992929053597
16.852189197027
9.555084026383744
3.7508979153999897
-3.7508979192955514
3.9745705658340005
-3.9745705700666636
-9.11992929440192
-16.28659996392837
-9.55508403055401
-16.852189201026793
-21.318862647287947
-27.900589305732744
-21.69120610531232
-27.614540976032274
-32.75706796691987
-39.443487756712365
-31.981466633391662
-37.98879453145368
-44.64375097768141
-52.16471452030811
-42.94392437067971
-50.47426295148383
-57.96158846562704
-66.27797906668391
-56.38960016007177
-65.02026337703258
-72.53157202397162
-81.30031511207972
-71.51663492969202
-80.63438885944194
-87.78334159532581
-96.72655624626067
-87.35889287008251
-96.6128255531033
96.52581206320903
87.03415410485314
96.4018174815924
86.5714000263967
80.10828518595575
70.67811737132179
79.33686947576106
69.40218189771099
63.920143991945864
54.88718517792686
62.172277632858425
52.35449942547241
43.123829902236
40.06468100752892
48.34025028343048
41.21277945815648
47.81001058934217
39.634101323777536
47.675546820536255
45.07372928275623
50.17017188403925
28.47743326737934
28.477508185864693
28.477432605477976
35.76583895254429
32.173854667822944
37.188971559189135
28.47721358782083
28.477330393053165
28.47721036658668
31.16672756630048
36.03919371262823
30.910505359472314
28.477367788180977
28.47724891667672
28.477369053122672
28.477130687538438
28.47701397897646
28.477134767585916
21.878206321978805
26.53244975201639
22.85698357630222
28.47697210417123
28.477088986038
28.47696796158419
27.92967557750439
23.15007222660165
27.944447194793785
28.47690103449699
28.476821277689204
28.47690615713866
19.11936754093958
11.527724162872454
18.000343253741473
8.590595571963734
12.480888802098464
9.797164154719875
14.69546086484626
10.62091198337065
18.365608036114867
4.3311978954978585
-4.331197899987008
5.081849229073123
-5.081849233925906
-14.695460869742888
-18.365608040780472
-10.620911987843552
-18.0003432579043
-11.527724167182535
-19.119367545402945
-9.797164159614347
-12.480888807033555
-8.590595576522544
-28.47690616274141
-28.476821283291958
-28.476901040099737
-22.85698358083946
-26.53244975651472
-21.87820632619075
-28.47713477318866
-28.477013984579198
-28.47713069314118
-27.94444719907459
-23.15007223074947
-27.929675581940618
-28.476967967186937
-28.47708899164075
-28.47697210977398
-28.477210372189433
-28.47733039865591
-28.47721359342357
-37.18897156320074
-32.173854672242406
-35.765838956887464
-28.477369058725415
-28.477248922279465
-28.47736779378372
-30.910505363868676
-36.03919371661411
-31.1667275705408
-43.123829905891064
-48.340250286582034
-40.06468101153905
-28.477432611080708
-28.477508191467432
-28.47743327298208
-39.634101327764455
-47.81001059254559
-41.21277946186139
-50.17017188699609
-45.073729286126195
-47.67554682354843
-54.887185180607744
-63.92014399410133
-52.35449942821471
-62.172277635193225
-70.6781173730826
-80.10828518716372
-69.40218189966674
-79.33686947708877
-87.03415410564624
-96.52581206342154
-86.57140002726251
-96.4018174818244
96.32549328491535
86.28655424655108
96.2409662833634
85.97109518214772
78.84989662373381
68.57150919806692
78.29087776028331
67.57800465178978
48.55377925245797
47.61421335344958
57.04394645221243
50.15575184403476
59.08720529768718
48.68547424186083
60.312073038152064
51.088698939171664
61.6262855962164
28.47765152172373
28.477674256088342
28.477651274601843
28.47760381980641
28.477484436906636
28.47760396213773
28.47743202380359
28.477508094457733
28.477430940681828
28.477547515959124
28.477589850902554
28.477470471609607
44.38694914406345
43.38316246371772
46.22974113554232
28.47735607370361
28.477218141773115
28.47735428230073
28.47721522220565
28.477116123294728
28.476975335558954
28.477112156616656
28.47696963628609
28.47670345129432
28.476829280093224
28.47669929347306
28.476891297224974
28.476816397379547
28.476897319518567
10.659237801296163
13.654640129846598
12.038890158268915
28.476772734488108
28.47684710297901
28.476721982829027
7.461461356397425
-3.7307306820636357
6.695750517694908
-28.476651503728895
-28.47662087551435
-28.476647196530422
-5.222001611201623
-7.148528105588631
4.715111459778233
6.174961284849717
-1.835625291667509
8.101487779312349
28.47664719092765
28.47662086991157
28.47665149812613
-6.440513576480036
3.2202567844756227
-7.206224415282873
-28.476699299075833
-28.476829285696
-28.47670345689709
-28.47689732512132
-28.47681640298231
-28.476891302827738
-28.476772740090873
-28.47672198843179
-28.476847108581783
-12.038890163416724
-13.65464013495546
-10.659237806337888
-28.4769753411617
-28.47711612889748
-28.476969641888854
-28.477112162219424
-28.477218147375872
-28.47735607930636
-28.47721522780842
-28.47735428790349
-46.22974113871649
-43.383162467279924
-44.386949147668346
-28.477430946284578
-28.477508100060476
-28.477432029406337
-28.477603967740475
-28.47748444250939
-28.47760382540916
-28.477547521561863
-28.47747047721235
-28.4775898565053
-61.62628559874397
-51.08869894249562
-60.31207304097634
-48.553779256290944
-57.043946455363184
-47.614213357162015
-28.477651280204583
-28.477674261691078
-28.477651527326476
-48.68547424516823
-59.087205300239035
-50.15575184695632
-68.57150920016709
-78.84989662514502
-67.5780046540895
-78.29087776180295
-86.28655424746518
-96.32549328516029
-85.97109518312102
-96.24096628362419
96.21002725348934
85.85562915072084
96.21002725348849
85.85562915071769
78.0862626550599
67.21435674905926
78.08626265504395
67.21435674901075
28.477681595618385
28.47765879307551
28.477681595618392
48.90180610072059
57.5017002401875
48.90180610070294
60.368331620030716
51.7684374805638
60.368331620076134
28.477651192227878
28.477673994770754
28.477651192227864
28.477593102889028
28.477455165765832
28.477593102889024
28.47745516576583
28.47735362660177
28.47721415356979
28.47735362660177
28.47721415356979
28.477110704711713
28.476967550207437
28.47711070471171
28.476967550207434
28.476860061027185
28.476709549629753
28.476860061027182
28.476709549629756
-28.476645760797595
-28.476619650477872
-28.476645760797595
5.458780490714825
-2.729390249411612
5.458780490775877
-5.45878049616762
-5.458780496147528
2.7293902439789095
28.476610941435187
28.47663705175491
28.47661094143519
-28.476610947037962
-28.476610947037955
-28.476637057357685
28.476645755194824
28.476619644875097
28.476645755194824
-28.476709555232528
-28.476860066629957
-28.476709555232524
-28.47686006662995
-28.476967555810205
-28.477110710314484
-28.476967555810198
-28.477110710314477
-28.47721415917256
-28.477353632204533
-28.477214159172554
-28.477353632204526
-28.47745517136859
-28.477593108491778
-28.477455171368586
-28.477593108491774
-28.477681601221132
-28.47765879867824
-28.47768160122113
-28.477651197830617
-28.477674000373504
-28.477651197830617
-60.36833162299269
-51.76843748418915
-60.3683316229815
-48.90180610459242
-57.50170024339597
-48.90180610459425
-67.21435675144558
-78.08626265662497
-67.21435675143408
-78.08626265662478
-85.85562915171812
-96.21002725375656
-85.85562915172123
-96.2100272537574
96.24096628336095
85.97109518213855
96.32549328491021
86.28655424653189
78.2908777602552
67.57800465171661
78.84989662370435
68.57150919802345
61.62628559619049
51.08869893919027
60.312073038084456
48.68547424192427
59.08720529770346
50.15575184413602
28.47765127460182
28.477674256088324
28.47765152172371
48.553779252434964
57.04394645214566
47.614213353465
28.47743094068181
28.477508094457704
28.477432023803562
28.47760396213772
28.47748443690663
28.4776038198064
28.477547515959095
28.477470471609593
28.47758985090254
46.229741135663275
43.38316246381258
44.38694914414908
28.477354282300723
28.477215222205647
28.47735607370359
28.4772181417731
28.47711215661665
28.47696963628608
28.47711612329471
28.476975335558937
28.476699293473068
28.476829280093224
28.476703451294327
12.038890158092492
13.654640129697496
10.659237801112965
28.476897319518557
28.476816397379544
28.476891297224967
28.476772734488105
28.476721982829023
28.476847102979015
6.174961284721977
8.101487779164678
-1.835625291731882
-28.47664719653042
-28.476620875514342
-28.476651503728895
28.476651498126127
28.476620869911574
28.476647190927658
-7.4614613615348855
3.7307306768034785
-6.695750522715644
-5.222001611234914
4.715111459661657
-7.148528105589766
6.440513571312546
-3.2202567895038654
7.206224410015212
-28.47689130282773
-28.476816402982294
-28.476897325121318
-28.476703456897088
-28.476829285695988
-28.476699299075833
-28.47677274009086
-28.47684710858178
-28.476721988431784
-10.659237806258876
-13.654640134891217
-12.038890163356195
-28.476969641888843
-28.477112162219413
-28.476975341161694
-28.477116128897464
-28.477215227808404
-28.477354287903477
-28.477218147375844
-28.477356079306336
-28.47760382540915
-28.477484442509382
-28.477603967740468
-28.477547521561846
-28.477589856505286
-28.477470477212343
-28.477432029406312
-28.477508100060454
-28.47743094628457
-44.3869491479966
-43.38316246765643
-46.22974113917968
-50.15575184737408
-59.08720530043374
-48.685474245455
-60.31207304099233
-51.08869894266561
-61.62628559883818
-28.47765152732646
-28.47767426169107
-28.47765128020458
-48.55377925631695
-47.61421335729012
-57.04394645536198
-67.5780046540831
-78.29087776180643
-68.5715092001976
-78.84989662515895
-85.97109518312662
-96.2409662836257
-86.28655424747137
-96.32549328516195
96.40181748158616
86.57140002637341
96.52581206320247
87.0341541048287
79.33686947572974
69.40218189767477
80.10828518592072
70.67811737127577
62.17227763284564
52.354499425528516
63.92014399188775
54.88718517784669
28.47743260547794
28.477508185864657
28.47743326737931
50.17017188396437
45.07372928279609
47.6755468206171
39.634101323410114
47.81001058906581
41.21277945765457
43.123829902203184
48.34025028326266
40.06468100728688
37.18897155868463
32.173854667505786
35.76583895217151
28.477210366586664
28.477330393053144
28.47721358782081
30.910505359171694
36.039193712132764
31.16672756596393
28.47736905312265
28.477248916676697
28.477367788180945
28.4771347675859
28.477013978976437
28.47713068753842
22.856983576140987
26.532449751799497
21.87820632176451
28.476967961584172
28.477088986037987
28.476972104171214
27.944447194520524
23.150072226359338
27.929675577259154
28.47690615713865
28.476821277689197
28.47690103449698
14.695460864712832
18.365608035981612
10.620911983227014
9.79716415454531
12.480888801946724
8.590595571821844
18.00034325354396
11.527724162721446
19.119367540782285
5.0818492289423896
-5.081849233926153
4.331197895379903
-4.331197900070321
-28.47690104009973
-28.476821283291947
-28.476906162741397
-8.590595576581745
-12.480888807007272
-9.79716415956527
-19.11936754563836
-11.52772416737175
-18.000343258231947
-14.695460869761586
-10.620911987961371
-18.365608040933154
-21.878206326448037
-26.53244975647701
-22.85698358102329
-28.47713069314116
-28.47701398457918
-28.477134773188638
-27.92967558180532
-23.15007223092264
-27.944447198921857
-28.476972109773964
-28.477088991640734
-28.476967967186937
-28.477213593423553
-28.477330398655884
-28.477210372189397
-35.76583895633359
-32.173854671854144
-37.18897156244152
-28.477367793783692
-28.477248922279436
-28.477369058725394
-31.16672757016618
-36.039193715899735
-30.910505363539524
-28.477433272982058
-28.477508191467408
-28.477432611080683
-43.12382990600889
-40.0646810112301
-48.34025028646946
-47.67554682394902
-45.073729286413034
-50.170171887074
-41.212779461104404
-47.81001059222385
-39.63410132722849
-52.354499428548785
-62.172277635318345
-54.88718518065366
-63.92014399413928
-69.40218189970655
-79.33686947710443
-70.67811737311091
-80.10828518717368
-86.5714000272679
-96.40181748182584
-87.03415410564881
-96.52581206342222
96.61282555289691
87.35889286931221
96.72655624606969
87.78334159461305
80.6343888582707
71.51663492798924
81.30031511098842
72.53157202236801
65.02026337491623
56.389600157357016
66.27797906469922
57.96158846311362
50.47426294829084
42.943924366778575
52.1647145174242
44.64375097431406
37.98879452724505
31.981466629051106
39.44348775309247
32.75706796309342
27.614540971692094
21.6912061011051
27.900589301820307
21.318862643347124
16.85218919682751
9.555084026243476
16.286599959960697
9.119929290389273
3.9745705657159607
-3.974570570183192
3.7508979152689434
-3.7508979194197614
-9.555084030714541
-16.852189201309052
-9.119929294520526
-16.286599964038505
-21.691206105517733
-27.614540975906003
-21.318862647333894
-27.90058930561182
-31.981466633021768
-37.98879453074988
-32.75706796669073
-39.443487756354465
-42.943924370005114
-50.47426295122293
-44.643750977323876
-52.164714520080324
-56.38960015998774
-65.02026337701803
-57.96158846547609
-66.27797906661313
-71.51663492970022
-80.6343888594428
-72.53157202393636
-81.30031511206134
-87.35889287008105
-96.61282555310291
-87.78334159531619
-96.72655624625808
96.79787454760064
88.04950511943609
96.87898907771996
88.35222866707349
81.71145207510973
73.14393856510807
82.16877289724107
73.80201797835046
67.02173072548074
58.86306136312403
67.79598236116652
59.75394282184236
53.11610623633843
45.573802203498445
54.02490518117905
46.41492280773658
40.24406997974076
33.22527478653767
40.97660807273307
33.728838282595476
28.1298699157996
21.22776011701234
28.47022787225339
21.351206844125812
16.088516335572272
8.94995101098286
16.11293104646252
8.92071645131561
3.6587002681884107
-3.6587002721231703
3.630484262473109
-3.6304842661339967
-8.949951014888889
-16.08851633939981
-8.92071645494612
-16.112931050010044
-21.22776012074199
-28.1298699193403
-21.351206847578847
-28.47022787553128
-33.225274789906635
-40.24406998282948
-33.72883828571395
-40.97660807559121
-45.57380220635137
-53.116106238827385
-46.4149228103776
-54.02490518348723
-58.86306136532961
-67.02173072727606
-59.75394282388747
-67.79598236282581
-73.14393856658275
-81.71145207611865
-73.80201797971182
-82.1687728981743
-88.04950512009734
-96.79787454777782
-88.35222866768592
-96.87898907788407
96.92683247081732
88.53078264091927
96.97642852144642
88.71587762172187
82.43667805337802
74.18332452347475
82.71128772942245
74.56699396477046
68.24102301751734
60.25970691925192
68.68264506641576
60.75059867130079
54.539671240024596
46.893559241534206
55.037239321962005
47.360097692784734
41.39903407749191
34.033824164353064
41.820585291939096
34.36349759284819
28.690279921043533
21.456655468968574
28.951115342194036
21.6212997425138
16.1615343167837
8.92861874885694
16.269906209824917
8.97944278690363
3.626445528527409
-3.626445532017197
3.643627507904804
-3.6436275112010073
-8.928618752316153
-16.16153432015939
-8.979442790170372
-16.269906213011165
-21.456655472252457
-28.690279924160134
-21.62129974561217
-28.95111534513281
-34.0338241673177
-41.39903408020867
-34.363497595643004
-41.8205852945002
-46.89355924404495
-54.539671242220365
-47.36009769515148
-55.03723932403145
-60.25970692119729
-68.24102301909359
-60.75059867313408
-68.68264506790118
-74.1833245247673
-82.43667805426466
-74.5669939659884
-82.71128773025755
-88.53078264150136
-96.92683247097328
-88.71587762226997