# vtk DataFile Version 4.1
Header:
ASCII

DATASET UNSTRUCTURED_GRID
POINTS 9261 double
-1 -1 -1
-0.9 -1 -1
-0.8 -1 -1
-0.7 -1 -1
-0.6 -1 -1
-0.5 -1 -1
-0.3999999999999999 -1 -1
-0.29999999999999993 -1 -1
-0.19999999999999996 -1 -1
-0.09999999999999998 -1 -1
0 -1 -1
0.10000000000000009 -1 -1
0.20000000000000018 -1 -1
0.30000000000000004 -1 -1
0.40000000000000013 -1 -1
0.5 -1 -1
0.6000000000000001 -1 -1
0.7000000000000002 -1 -1
0.8 -1 -1
0.9000000000000001 -1 -1
1 -1 -1
-1 -0.9 -1
-0.9 -0.9 -1
-0.8 -0.9 -1
-0.7 -0.9 -1
-0.6 -0.9 -1
-0.5 -0.9 -1
-0.3999999999999999 -0.9 -1
-0.29999999999999993 -0.9 -1
-0.19999999999999996 -0.9 -1
-0.09999999999999998 -0.9 -1
0 -0.9 -1
0.10000000000000009 -0.9 -1
0.20000000000000018 -0.9 -1
0.30000000000000004 -0.9 -1
0.40000000000000013 -0.9 -1
0.5 -0.9 -1
0.6000000000000001 -0.9 -1
0.7000000000000002 -0.9 -1
0.8 -0.9 -1
0.9000000000000001 -0.9 -1
1 -0.9 -1
-1 -0.8 -1
-0.9 -0.8 -1
-0.8 -0.8 -1
-0.7 -0.8 -1
-0.6 -0.8 -1
-0.5 -0.8 -1
-0.3999999999999999 -0.8 -1
-0.29999999999999993 -0.8 -1
-0.19999999999999996 -0.8 -1
-0.09999999999999998 -0.8 -1
0 -0.8 -1
0.10000000000000009 -0.8 -1
0.20000000000000018 -0.8 -1
0.30000000000000004 -0.8 -1
0.40000000000000013 -0.8 -1
0.5 -0.8 -1
0.6000000000000001 -0.8 -1
0.7000000000000002 -0.8 -1
0.8 -0.8 -1
0.9000000000000001 -0.8 -1
1 -0.8 -1
-1 -0.7 -1
-0.9 -0.7 -1
-0.8 -0.7 -1
-0.7 -0.7 -1
-0.6 -0.7 -1
-0.5 -0.7 -1
-0.3999999999999999 -0.7 -1
-0.29999999999999993 -0.7 -1
-0.19999999999999996 -0.7 -1
-0.09999999999999998 -0.7 -1
0 -0.7 -1
0.10000000000000009 -0.7 -1
0.20000000000000018 -0.7 -1
0.30000000000000004 -0.7 -1
0.40000000000000013 -0.7 -1
0.5 -0.7 -1
0.6000000000000001 -0.7 -1
0.7000000000000002 -0.7 -1
0.8 -0.7 -1
0.9000000000000001 -0.7 -1
1 -0.7 -1
-1 -0.6 -1
-0.9 -0.6 -1
-0.8 -0.6 -1
-0.7 -0.6 -1
-0.6 -0.6 -1
-0.5 -0.6 -1
-0.3999999999999999 -0.6 -1
-0.29999999999999993 -0.6 -1
-0.19999999999999996 -0.6 -1
-0.09999999999999998 -0.6 -1
0 -0.6 -1
0.10000000000000009 -0.6 -1
0.20000000000000018 -0.6 -1
0.30000000000000004 -0.6 -1
0.40000000000000013 -0.6 -1
0.5 -0.6 -1
0.6000000000000001 -0.6 -1
0.7000000000000002 -0.6 -1
0.8 -0.6 -1
0.9000000000000001 -0.6 -1
1 -0.6 -1
-1 -0.5 -1
-0.9 -0.5 -1
-0.8 -0.5 -1
-0.7 -0.5 -1
-0.6 -0.5 -1
-0.5 -0.5 -1
-0.3999999999999999 -0.5 -1
-0.29999999999999993 -0.5 -1
-0.19999999999999996 -0.5 -1
-0.09999999999999998 -0.5 -1
0 -0.5 -1
0.10000000000000009 -0.5 -1
0.20000000000000018 -0.5 -1
0.30000000000000004 -0.5 -1
0.40000000000000013 -0.5 -1
0.5 -0.5 -1
0.6000000000000001 -0.5 -1
0.7000000000000002 -0.5 -1
0.8 -0.5 -1
0.9000000000000001 -0.5 -1
1 -0.5 -1
-1 -0.3999999999999999 -1
-0.9 -0.3999999999999999 -1
-0.8 -0.3999999999999999 -1
-0.7 -0.3999999999999999 -1
-0.6 -0.3999999999999999 -1
-0.5 -0.3999999999999999 -1
-0.3999999999999999 -0.3999999999999999 -1
-0.29999999999999993 -0.3999999999999999 -1
-0.19999999999999996 -0.3999999999999999 -1
-0.09999999999999998 -0.3999999999999999 -1
0 -0.3999999999999999 -1
0.10000000000000009 -0.3999999999999999 -1
0.20000000000000018 -0.3999999999999999 -1
0.30000000000000004 -0.3999999999999999 -1
0.40000000000000013 -0.3999999999999999 -1
0.5 -0.3999999999999999 -1
0.6000000000000001 -0.3999999999999999 -1
0.7000000000000002 -0.3999999999999999 -1
0.8 -0.3999999999999999 -1
0.9000000000000001 -0.3999999999999999 -1
1 -0.3999999999999999 -1
-1 -0.29999999999999993 -1
-0.9 -0.29999999999999993 -1
-0.8 -0.29999999999999993 -1
-0.7 -0.29999999999999993 -1
-0.6 -0.29999999999999993 -1
-0.5 -0.29999999999999993 -1
-0.3999999999999999 -0.29999999999999993 -1
-0.29999999999999993 -0.29999999999999993 -1
-0.19999999999999996 -0.29999999999999993 -1
-0.09999999999999998 -0.29999999999999993 -1
0 -0.29999999999999993 -1
0.10000000000000009 -0.29999999999999993 -1
0.20000000000000018 -0.29999999999999993 -1
0.30000000000000004 -0.29999999999999993 -1
0.40000000000000013 -0.29999999999999993 -1
0.5 -0.29999999999999993 -1
0.6000000000000001 -0.29999999999999993 -1
0.7000000000000002 -0.29999999999999993 -1
0.8 -0.29999999999999993 -1
0.9000000000000001 -0.29999999999999993 -1
1 -0.29999999999999993 -1
-1 -0.19999999999999996 -1
-0.9 -0.19999999999999996 -1
-0.8 -0.19999999999999996 -1
-0.7 -0.19999999999999996 -1
-0.6 -0.19999999999999996 -1
-0.5 -0.19999999999999996 -1
-0.3999999999999999 -0.19999999999999996 -1
-0.29999999999999993 -0.19999999999999996 -1
-0.19999999999999996 -0.19999999999999996 -1
-0.09999999999999998 -0.19999999999999996 -1
0 -0.19999999999999996 -1
0.10000000000000009 -0.19999999999999996 -1
0.20000000000000018 -0.19999999999999996 -1
0.30000000000000004 -0.19999999999999996 -1
0.40000000000000013 -0.19999999999999996 -1
0.5 -0.19999999999999996 -1
0.6000000000000001 -0.19999999999999996 -1
0.7000000000000002 -0.19999999999999996 -1
0.8 -0.19999999999999996 -1
0.9000000000000001 -0.19999999999999996 -1
1 -0.19999999999999996 -1
-1 -0.09999999999999998 -1
-0.9 -0.09999999999999998 -1
-0.8 -0.09999999999999998 -1
-0.7 -0.09999999999999998 -1
-0.6 -0.09999999999999998 -1
-0.5 -0.09999999999999998 -1
-0.3999999999999999 -0.09999999999999998 -1
-0.29999999999999993 -0.09999999999999998 -1
-0.19999999999999996 -0.09999999999999998 -1
-0.09999999999999998 -0.09999999999999998 -1
0 -0.09999999999999998 -1
0.10000000000000009 -0.09999999999999998 -1
0.20000000000000018 -0.09999999999999998 -1
0.30000000000000004 -0.09999999999999998 -1
0.40000000000000013 -0.09999999999999998 -1
0.5 -0.09999999999999998 -1
0.6000000000000001 -0.09999999999999998 -1
0.7000000000000002 -0.09999999999999998 -1
0.8 -0.09999999999999998 -1
0.9000000000000001 -0.09999999999999998 -1
1 -0.09999999999999998 -1
-1 0 -1
-0.9 0 -1
-0.8 0 -1
-0.7 0 -1
-0.6 0 -1
-0.5 0 -1
-0.3999999999999999 0 -1
-0.29999999999999993 0 -1
-0.19999999999999996 0 -1
-0.09999999999999998 0 -1
0 0 -1
0.10000000000000009 0 -1
0.20000000000000018 0 -1
0.30000000000000004 0 -1
0.40000000000000013 0 -1
0.5 0 -1
0.6000000000000001 0 -1
0.7000000000000002 0 -1
0.8 0 -1
0.9000000000000001 0 -1
1 0 -1
-1 0.10000000000000009 -1
-0.9 0.10000000000000009 -1
-0.8 0.10000000000000009 -1
-0.7 0.10000000000000009 -1
-0.6 0.10000000000000009 -1
-0.5 0.10000000000000009 -1
-0.3999999999999999 0.10000000000000009 -1
-0.29999999999999993 0.10000000000000009 -1
-0.19999999999999996 0.10000000000000009 -1
-0.09999999999999998 0.10000000000000009 -1
0 0.10000000000000009 -1
0.10000000000000009 0.10000000000000009 -1
0.20000000000000018 0.10000000000000009 -1
0.30000000000000004 0.10000000000000009 -1
0.40000000000000013 0.10000000000000009 -1
0.5 0.10000000000000009 -1
0.6000000000000001 0.10000000000000009 -1
0.7000000000000002 0.10000000000000009 -1
0.8 0.10000000000000009 -1
0.9000000000000001 0.10000000000000009 -1
1 0.10000000000000009 -1
-1 0.20000000000000018 -1
-0.9 0.20000000000000018 -1
-0.8 0.20000000000000018 -1
-0.7 0.20000000000000018 -1
-0.6 0.20000000000000018 -1
-0.5 0.20000000000000018 -1
-0.3999999999999999 0.20000000000000018 -1
-0.29999999999999993 0.20000000000000018 -1
-0.19999999999999996 0.20000000000000018 -1
-0.09999999999999998 0.20000000000000018 -1
0 0.20000000000000018 -1
0.10000000000000009 0.20000000000000018 -1
0.20000000000000018 0.20000000000000018 -1
0.30000000000000004 0.20000000000000018 -1
0.40000000000000013 0.20000000000000018 -1
0.5 0.20000000000000018 -1
0.6000000000000001 0.20000000000000018 -1
0.7000000000000002 0.20000000000000018 -1
0.8 0.20000000000000018 -1
0.9000000000000001 0.20000000000000018 -1
1 0.20000000000000018 -1
-1 0.30000000000000004 -1
-0.9 0.30000000000000004 -1
-0.8 0.30000000000000004 -1
-0.7 0.30000000000000004 -1
-0.6 0.30000000000000004 -1
-0.5 0.30000000000000004 -1
-0.3999999999999999 0.30000000000000004 -1
-0.29999999999999993 0.30000000000000004 -1
-0.19999999999999996 0.30000000000000004 -1
-0.09999999999999998 0.30000000000000004 -1
0 0.30000000000000004 -1
0.10000000000000009 0.30000000000000004 -1
0.20000000000000018 0.30000000000000004 -1
0.30000000000000004 0.30000000000000004 -1
0.40000000000000013 0.30000000000000004 -1
0.5 0.30000000000000004 -1
0.6000000000000001 0.30000000000000004 -1
0.7000000000000002 0.30000000000000004 -1
0.8 0.30000000000000004 -1
0.9000000000000001 0.30000000000000004 -1
1 0.30000000000000004 -1
-1 0.40000000000000013 -1
-0.9 0.40000000000000013 -1
-0.8 0.40000000000000013 -1
-0.7 0.40000000000000013 -1
-0.6 0.40000000000000013 -1
-0.5 0.40000000000000013 -1
-0.3999999999999999 0.40000000000000013 -1
-0.29999999999999993 0.40000000000000013 -1
-0.19999999999999996 0.40000000000000013 -1
-0.09999999999999998 0.40000000000000013 -1
0 0.40000000000000013 -1
0.10000000000000009 0.40000000000000013 -1
0.20000000000000018 0.40000000000000013 -1
0.30000000000000004 0.40000000000000013 -1
0.40000000000000013 0.40000000000000013 -1
0.5 0.40000000000000013 -1
0.6000000000000001 0.40000000000000013 -1
0.7000000000000002 0.40000000000000013 -1
0.8 0.40000000000000013 -1
0.9000000000000001 0.40000000000000013 -1
1 0.40000000000000013 -1
-1 0.5 -1
-0.9 0.5 -1
-0.8 0.5 -1
-0.7 0.5 -1
-0.6 0.5 -1
-0.5 0.5 -1
-0.3999999999999999 0.5 -1
-0.29999999999999993 0.5 -1
-0.19999999999999996 0.5 -1
-0.09999999999999998 0.5 -1
0 0.5 -1
0.10000000000000009 0.5 -1
0.20000000000000018 0.5 -1
0.30000000000000004 0.5 -1
0.40000000000000013 0.5 -1
0.5 0.5 -1
0.6000000000000001 0.5 -1
0.7000000000000002 0.5 -1
0.8 0.5 -1
0.9000000000000001 0.5 -1
1 0.5 -1
-1 0.6000000000000001 -1
-0.9 0.6000000000000001 -1
-0.8 0.6000000000000001 -1
-0.7 0.6000000000000001 -1
-0.6 0.6000000000000001 -1
-0.5 0.6000000000000001 -1
-0.3999999999999999 0.6000000000000001 -1
-0.29999999999999993 0.6000000000000001 -1
-0.19999999999999996 0.6000000000000001 -1
-0.09999999999999998 0.6000000000000001 -1
0 0.6000000000000001 -1
0.10000000000000009 0.6000000000000001 -1
0.20000000000000018 0.6000000000000001 -1
0.30000000000000004 0.6000000000000001 -1
0.40000000000000013 0.6000000000000001 -1
0.5 0.6000000000000001 -1
0.6000000000000001 0.6000000000000001 -1
[...]
POINT_DATA 9261
SCALARS temperature double 1
LOOKUP_TABLE default
100
89.93966372812565
79.88564975017155
69.84351626855197
59.81741258410242
49.8096530755821
39.82056783979669
29.848627495147436
19.890775919347078
9.94286297642082
7.12682939328676E-05
-9.942721963424924
-19.89063946237245
-29.848498595157984
-39.82044947369609
-49.80954820636981
-59.817324129208515
-69.84344698695348
-79.88560204303421
-89.9396393917903
-100
100
89.93806119963197
79.88263986061848
69.83945892181536
59.81277619378976
49.80494285067825
39.816254325523396
29.845092672642622
19.888288610729806
9.941583241615815
7.06477088962295E-05
-9.941443440851149
-19.88815328042834
-29.84496476272012
-39.81613677422039
-49.80483860256058
-59.81268817215693
-69.83938991277044
-79.88259230378283
-89.93803692758998
-100
100
89.93332263477774
79.87374184577857
69.82746964419484
59.799085770015076
49.79104895224363
39.80354769076926
29.8346955718508
19.880983014288596
9.93782829966988
6.865463740404205E-05
-9.937692393238084
-19.8808513085099
-29.83457085829405
-39.80343279036663
-49.79094675383061
-59.79899921188143
-69.82740158784891
-79.87369483745964
-89.93329860712302
-100
100
89.92567560574935
79.85938830628565
69.8081453208693
59.777049390261546
49.768729288929975
39.7831875736722
29.818084327548995
19.86934317117525
9.931857463500716
6.484710328020944E-05
-9.93172900353883
-19.86921841896906
-29.81796579463421
-39.783077877028546
-49.768631217723154
-59.776965894805045
-69.80807936396265
-79.85934257986939
-89.92565217859527
-100
100
89.91556013349268
79.84041164049731
69.7826242972341
59.74799946825396
49.739385278326125
39.7565145715793
29.796410794239883
19.854215194254607
9.924119045705847
5.835833881551429E-05
-9.924003297258357
-19.85410238273433
-29.796302998894454
-39.75641409753108
-49.73929474691479
-59.74792180067138
-69.78256253411415
-79.84036860286298
-89.91553801388032
-100
100
89.90369252672494
79.81816086131873
69.75273576594174
59.71404837075877
49.70519775837144
39.72556877767854
29.771387336759606
19.836831340366427
9.915256769509815
4.781811812783428E-05
-9.91516172254697
-19.836738123902286
-29.771297411104527
-39.725483974934065
-49.705120395396484
-59.71398122309368
-69.75268183954314
-79.81812300700021
-89.90367298324938
-100
100
89.89110097926226
79.79456581988002
69.72107882890853
59.678163602343446
49.669180031912
39.693109620052894
29.745276345629623
19.818784355000926
9.906089749849686
3.1469645200507895E-05
-9.90602689753029
-19.81872187573438
-29.745214830594627
-39.69305018625533
-49.66912444699326
-59.67811423926183
-69.72103842930329
-79.79453706380643
-89.89108600744825
-100
100
89.87908864446541
79.77206685234505
69.69092396129804
59.64404670605397
49.63503982809572
39.66247083658972
29.720752460560302
19.801917985156564
9.897551391569007
7.64030843523822E-06
-9.897535604612274
-19.801900775721773
-29.72073328752946
-39.66244974723257
-49.63501763269074
-59.64402498616614
-69.69090481806391
-79.77205251061018
-89.87908095036646
-100
100
89.86909326251885
79.75335238393795
69.66586215117191
59.615735803703146
49.606780452352005
39.63719825813606
29.700609363859215
19.788121844034663
9.89058495601189
-2.4493500315035143E-05
-9.890632756657844
-19.788166201055155
-29.70064827864847
-39.637230296265486
-49.606804971745255
-59.61575304737525
-69.66587314652244
-79.75335855027768
-89.86909594345357
-100
100
89.86244979412902
79.74091662484743
69.64921746096493
59.59695302005553
49.58806359654595
39.62050017551209
29.68733835691511
19.77905641011983
9.886009558067192
-6.408796564113418E-05
-9.886135869688639
-19.779177084881205
-29.687449742858583
-39.62059893115923
-49.58814711090293
-59.597019709912104
-69.64926680832555
-79.7409489386386
-89.8624657121022
-100
100
89.86011276805166
79.73654196755136
69.64336275106066
59.5903475041034
49.58148399174407
39.61463260300076
29.682675637199566
19.775866389112075
9.884386467188197
-0.0001083688934381264
-9.88460061863544
-19.77607270430759
-29.682868593928163
-39.614806749674024
-49.58163440659101
-59.59047041440119
-69.64345580366167
-79.73660411444766
-89.86014380184558
-100
100
89.86243022284464
79.74087846503501
69.64916262863646
59.596884245969
49.58798414283804
39.62041349763261
29.687247653590706
19.778964374407227
9.885918257599617
-0.00015305634560736897
-9.88622111446715
-19.77925716979053
-29.687523103503445
-39.620663958921845
-49.58820241166131
-59.59706428830528
-69.64930018672943
-79.74097104538524
-89.86247669550332
-100
100
89.86905643429465
79.75328056462783
69.66575892507421
59.61560622968349
49.6066306066846
39.63703450499089
29.700437701828232
19.78794731913827
9.89041155686841
-0.00019362145972179546
-9.890794850940786
-19.78831846501519
-29.700787722361266
-39.637353935748514
-49.60691018983284
-59.61583800045444
-69.66593687094918
-79.75340083985118
-89.8691169828425
-100
100
89.87903850149067
79.77196904237464
69.69078328264388
59.64386991505712
49.634834969403286
39.662246404621264
29.720516456355437
19.801677327347612
9.89731168898109
-0.0002265279500846729
-9.897760167566103
-19.802111707313546
-29.720926445181874
-39.66262107978367
-49.63516364732263
-59.64414314419657
-69.69099371264936
-79.77211167182938
-89.87911044659118
-100
100
89.89104203882397
79.7944507906491
69.7209132129049
59.67795509287777
49.668937782438746
39.69284328443436
29.744995175133344
19.81849650941663
9.905802111388654
-0.00025013387576185527
-9.90629722928177
-19.81897587207388
-29.745447475025124
-39.693256721794356
-49.6693007872706
-59.678257357547984
-69.7211464814848
-79.79460922157425
-89.89112207258788
-100
100
89.90362888372633
79.81803655858158
69.75255653364113
59.713822189095836
49.70493410175902
39.72527771252108
29.771078638782797
19.836513899701643
9.914938364140449
-0.0002647334166308288
-9.915462218520815
-19.837020686109827
-29.77155640682953
-39.72571420087207
-49.705317408884405
-59.71414162971939
-69.75280339348063
-79.81820446467273
-89.90371379830043
-100
100
89.9154948343226
79.84028397414208
69.78243987981011
59.74776610388892
49.73911225076703
39.756211823919756
29.796088172939474
19.85388190548813
9.923783433987275
-0.0002720411632359411
-9.924321564495102
-19.854402042785733
-29.796578001323734
-39.75665896020643
-49.73950479107909
-59.74809335141231
-69.78269298038286
-79.84045629524923
-89.91558205030518
-100
100
89.92561046457159
79.85926080573711
69.80796078409026
59.776815217892924
49.76845432338119
39.78288139189027
29.8177565908118
19.86900315665555
9.931513825138522
-0.0002744201078225942
-9.932056494051063
-19.869527254969963
-29.818249645580106
-39.7833310734093
-49.76884890849267
-59.777144175052605
-69.8082153149434
-79.85943420513871
-89.92569827088218
-100
100
89.93325837996302
79.8736159495919
69.82728710988192
59.79885356935371
49.79077546455466
39.803242091314736
29.834367273638897
19.880641245624624
9.93748185439611
-0.0002742109077912346
-9.938023981445781
-19.881164491436255
-29.834859125605615
-39.80369034046129
-49.791168602262104
-59.79918127585851
-69.82754071511695
-79.87378877349995
-89.93334592020081
-100
100
89.93799777698435
79.8825155036467
69.83927839883158
59.8125461659031
49.80467136415955
39.81595026426885
29.844765255265248
19.88794699735133
9.94123627448399
-0.0002732919355629654
-9.941776505650349
-19.888468208887772
-29.845254942036565
-39.81639632049385
-49.8050624434647
-59.81287210973227
-69.83953064939183
-79.88268742824773
-89.93808487378222
-100
100
89.93960063140848
79.88552599944755
69.84333654692054
59.817183440654865
49.809382436973124
39.82026448476676
29.8483005706169
19.890434556066563
9.942516026534106
-0.00027285101805796176
-9.943055359531929
-19.890954832059208
-29.848789292315736
-39.82070958594816
-49.809772630265385
-59.81750862687701
-69.84358821149297
-79.88569753095756
-89.93968753252688
-100
100
89.93806153539596
79.88264051865123
69.8394598785874
59.812777420590365
49.80494431680188
39.8162559975603
29.845094510184925
19.88829056170548
9.941585241562901
7.262556997070235E-05
-9.941441551823825
-19.88815153176826
-29.844963185603845
-39.81613538270187
-49.80483740302775
-59.812687173438675
-69.83938913158161
-79.882591763227
-89.93803665031189
-100
100
89.93632453389404
79.87938037794757
69.83507117615244
59.80777342451363
49.79987667975673
39.811633883165776
29.841323921977537
19.885648738539636
9.940230289713575
7.204768561919206E-05
-9.940087729237115
-19.885510757693037
-29.84119351335739
-39.811514007737316
-49.79977030682426
-59.807683527054785
-69.83500062279398
-79.87933171037962
-89.9362996784664
-100
100
89.93117389727507
79.8697154582733
69.82206680904461
59.79295842127685
49.78489276007686
39.79799111762453
29.830217092648688
19.877882172112027
9.936252693174191
7.020797379886368E-05
-9.936113727039142
-19.87774752970199
-29.830089604141993
-39.79787361405264
-49.784788147227545
-59.79286969552866
-69.82199694050007
-79.86966713151622
-89.93114917240938
-100
100
89.92281678168187
79.8540400638943
69.80099369633967
59.76898918572103
49.7607100269874
39.776046767959535
29.81242227608485
19.86548710324949
9.929922780309425
6.672830845250166E-05
-9.929790611572285
-19.86535878044992
-29.812300341599
-39.775933838756075
-49.760608910721494
-59.768902915276506
-69.80092539262888
-79.85399261732167
-89.92279244132462
-100
100
89.91167784146528
79.83315714217149
69.77295148615337
59.73716029801563
49.728706131672446
39.74714159448498
29.789114567333332
19.84934282328814
9.921712570592621
6.080046851403287E-05
-9.921591992313449
-19.84922531410541
-29.789002238367903
-39.74703675371372
-49.72861144461148
-59.73707882808176
-69.77288650791183
-79.8331117533807
-89.91165447642157
-100
100
89.89848996014675
79.8084451363843
69.73980753470842
59.699630098651
49.691118295519594
39.71338385850053
29.76208118413548
19.830748359249313
9.912305769375466
5.1016840147466436E-05
-9.912204358471895
-19.830648875820376
-29.76198510637821
-39.71329306085847
-49.69103521775167
-59.6995577453471
-69.73974924672106
-79.80840412148784
-89.89846875349744
-100
100
89.88436022490211
79.78197941954637
69.70435187653419
59.659577668913585
49.65116840708503
39.6777203184812
29.73373610141549
19.811403138014306
9.902576441469476
3.539684334280535E-05
-9.902505747056397
-19.811332816773078
-29.733666788963983
-39.67765322280392
-49.6511055023092
-59.65952169177259
-69.70430598868595
-79.78194672598666
-89.88434319506729
-100
100
89.87075240376788
79.75649925122639
69.67024934293286
59.62113605359616
49.61297227889411
39.64381868514655
29.706990674214545
19.79329105769521
9.89352017423179
1.182293095097764E-05
-9.893495973100155
-19.793265380234267
-29.706962963856263
-39.643789131187404
-49.6129419987399
-59.62110702093731
-69.67022416472366
-79.756480595802
-89.87074246265159
-100
100
89.85933677335034
79.73512818912475
69.64166683012928
59.5889724703468
49.58111519659563
39.61568282270748
29.684935297991615
19.77845672803961
9.88613807727763
-2.0971720005646954E-05
-9.88617883093921
-19.778493910904317
-29.684966951889727
-39.61570758612923
-49.581132641518025
-59.588983261284135
-69.64167241854047
-79.73513046132699
-89.85933741136317
-100
100
89.85170403384924
79.72084021840024
69.62256635538711
59.567502976643205
49.559897921202726
39.59700779773303
29.67036305881392
19.768700306243392
9.88129435176723
-6.240293563231081E-05
-9.881417256906758
-19.768817612763694
-29.67047096667641
-39.59710294006316
-49.55997770767612
-59.567565973607515
-69.62261240767481
-79.72087001866588
-89.8517185917911
-100
100
89.84901081784008
79.7157985462687
69.61582639417561
59.55992967170606
49.55241771637391
39.59043103634028
29.665235473949288
19.765266277436137
9.879576456326005
-0.00010934925656064243
-9.879792705789379
-19.765474810525138
-29.665430731585815
-39.590607154271865
-49.552569493133525
-59.560053168401005
-69.61591938680954
-79.71586032044908
-89.84904154353735
-100
100
89.85168265376612
79.72079851277465
69.6225064448622
59.567427916798124
49.55981150723536
39.59691396459271
29.670265505572196
19.768601912627137
9.881197185175692
-0.0001569113845192871
-9.881507886275188
-19.768902966172732
-29.67054929592222
-39.59717238430722
-49.56003655740329
-59.56761314367532
-69.62264744559423
-79.7208930561584
-89.85172997310056
-100
100
89.85929679921747
79.73505022740225
69.64155480624869
59.588832086845734
49.58095332284279
39.615506807522905
29.684751798158416
19.778271221254922
9.885954520119748
-0.00019970111474498786
-9.886350223724937
-19.778655196758866
-29.6851148907204
-39.615838694181555
-49.581243911038534
-59.5890726051387
-69.64173899779422
-79.73517435565245
-89.85935914913024
-100
100
89.87069851266358
79.75639414086798
69.67009826892065
59.620946506249666
49.612753326117236
39.64357980059092
29.70674074637195
19.793037385988477
9.893268378778108
-0.00023376298383670502
-9.893731529634577
-19.793486885544855
-29.70716596536743
-39.643969101486036
-49.61309497050948
-59.621230282183284
-69.67031640601896
-79.75654167864397
-89.87077280797752
-100
100
89.88429762986841
79.78185730126317
69.7041762110613
59.65935690009713
49.650912609696874
39.67744012523945
29.733441466654448
19.811102626905182
9.902276960790127
-0.0002574043962883521
-9.902786779685847
-19.811596982484055
-29.733908796786682
-39.67786790577765
-49.65128843183152
-59.659669683439255
-69.70441730673144
-79.78202080802437
-89.88438013240282
-100
100
89.89842321070677
79.80831483009182
69.73961983281251
59.69939361797236
49.690843280786126
39.713081108431645
29.761761060626437
19.830420044644825
9.911977100474354
-0.0002712546361083312
-9.912514085633463
-19.830940106256474
-29.762251997901096
-39.713530129975304
-49.69123778655409
-59.69972233555154
-69.73987368275263
-79.80848733648843
-89.89851038888315
-100
100
89.91161014708959
79.83302485946614
69.77276057492514
59.736919047772396
49.72842438099285
39.74682981572655
29.788782996956773
19.849000896018836
9.92136870932679
-0.0002774523976064591
-9.921917692790283
-19.849531900418807
-29.7892835054939
-39.74728704670761
-49.72882595126248
-59.73725381802395
-69.77301940392766
-79.8332009950213
-89.91169925757664
-100
100
89.92274990074361
79.85390921291808
69.80080444593116
59.7687492727086
49.76042866662362
39.77573387994175
29.812087787298573
19.86514045390379
9.929572710872588
-0.0002787128854112031
-9.9301239590624
-19.86567306851473
-29.812589130882664
-39.776191349252315
-49.76083020621015
-59.76908404844055
-69.80106344291431
-79.85408561363816
-89.92283920856825
-100
100
89.93110839085436
79.8695871482211
69.82188086622239
59.79272203945909
49.784614559560076
39.79768049625662
29.829883639023738
19.877535238987573
9.935901159864983
-0.0002775998545102576
-9.93645003968536
-19.87806513810152
-29.83038191174881
-39.79813473914476
-49.78501303988205
-59.7930542263931
-69.82213792984582
-79.86976231193188
-89.93119710799053
-100
100
89.93626014929639
79.87925416058258
69.83488801186674
59.807540127765805
49.7996014622622
39.81132578330083
29.840992287579898
19.88530283066449
9.939879031629312
-0.0002761065784395167
-9.940424859316868
-19.885829526582278
-29.841487233337478
-39.811776724647146
-49.7999968863153
-59.807869719038
-69.83514308759099
-79.87942800492368
-89.93634821513095
-100
100
89.93799757158419
79.88251508844597
69.83927776585136
59.812545305286605
49.80467026673566
39.81594892473565
29.84476367552951
19.887945189454122
9.941234262715497
-0.00027546994168214933
-9.941778798849203
-19.888470553695914
-29.84525726411866
-39.81639853754423
-49.805064469018575
-59.81287385803713
-69.8395320411587
-79.88268839678183
-89.93808537075827
-100
100
89.93332399726472
79.87374451349396
69.82747351825036
59.799090731991065
49.79105487896779
39.803554451390305
29.834703008055342
19.880990917587877
9.937836406184744
7.666966812217013E-05
-9.937684747106152
-19.88084424282412
-29.83456449575274
-39.80342717979843
-49.79094191284118
-59.798995172255175
-69.82739841905386
-79.87369263896859
-89.9332974773728
-100
100
89.93117491708405
79.86971745272234
69.82206970092075
59.79296212011485
49.784897175051825
39.79799615530257
29.83022263971903
19.877888075147048
9.936258752365932
7.619610963977008E-05
-9.93610802467561
-19.877742274268527
-29.830084884020884
-39.797869457710526
-49.78478455958113
-59.79286669552973
-69.8219945802788
-79.86966548940265
-89.93114832693155
-100
100
89.9247555197662
79.85769063476287
69.80593957546569
59.77468890156114
49.76657286988749
39.78150272566278
29.816974958724273
19.868746845473744
9.931623835991564
7.475089044911565E-05
-9.93147594419614
-19.868603691830774
-29.816839476179574
-39.78137773756417
-49.76646128855002
-59.7745938697444
-69.80586438907278
-79.85763841183007
-89.92472872560194
-100
100
89.91419218691799
79.83790542964458
69.77942758867094
59.744715663048986
49.736626657438876
39.75469825781173
29.795597012330735
19.854103952696725
9.924241909719436
7.218035307102189E-05
-9.924099040406313
-19.853965429994336
-29.795465456948484
-39.75457619746065
-49.73651685994302
-59.744621365992494
-69.77935239858542
-79.83785288137297
-89.91416512122751
-100
100
89.89983339122779
79.81101686150446
69.74343341107974
59.704129086589475
49.696281376088216
39.7188710636816
29.76731899399894
19.834949765645757
9.914670890779492
6.793173703745214E-05
-9.914536270169743
-19.83481875937297
-29.767193736490125
-39.71875375348937
-49.69617469594303
-59.70403645803487
-69.74335885098067
-79.8109643865121
-89.89980624911517
-100
100
89.88243027577711
79.77842773474075
69.69984620303372
59.655118960825725
49.647848350886406
39.676276906335815
29.734140809495127
19.812803834421413
9.90373664977815
6.0614466229041986E-05
-9.903616228501011
-19.81268572491299
-29.73402655646711
-39.67616834423638
-49.64774812991738
-59.655030804126916
-69.69977452595752
-79.77837694578916
-89.88240390447268
-100
100
89.86331282804652
79.74261942320149
69.65198060381445
59.60144001374382
49.5951230282498
39.63039281024308
29.698932566421213
19.789705645154935
9.892496696533446
4.7602527460555155E-05
-9.892401585386986
-19.789611015221546
-29.69883897315836
-39.630301704725696
-49.59503710020307
-59.601363062450126
-69.65191725715148
-79.74257417991177
-89.86328923681226
-100
100
89.84445463103081
79.70728033108239
69.60475289506164
59.54859378324653
49.54350511089601
39.58593310417782
29.665330476817708
19.768061511217333
9.88212885886229
2.5385441997954894E-05
-9.882077482743881
-19.768008192660748
-29.66527483188431
-39.585875729200126
-49.54344801817725
-59.54854061049362
-69.60470780603761
-79.70724751345665
-89.84443733355145
-100
100
89.82830645084806
79.67700266800539
69.56428867108116
59.50338790776602
49.49955708108285
39.54840830039652
29.637355318610474
19.750340664037726
9.873765620947719
-9.184771818354642E-06
-9.873782445431676
-19.750353580708516
-29.63736200341022
-39.54840784895936
-49.49955021090748
-59.50337644452023
-69.56427586790878
-79.67699175959018
-89.8283002265393
-100
100
89.81734686065487
79.65644403524061
69.53680677424461
59.472720501570144
49.469832893930814
39.5231937386747
29.618739594908934
19.738700169033134
9.868325411600008
-5.6208092983456304E-05
-9.868436159202028
-19.73880496791254
-29.61883483869144
-39.52327564730246
-49.46989898029211
-59.47277027715437
-69.53684106735297
-79.65646502575008
-89.81735666722494
-100
100
89.81345049638767
79.64913131710466
69.52703035351256
59.46180984824392
49.45927394702394
39.51425543490587
29.612168288284202
19.734602456788995
9.866404985668801
-0.00011204507694101418
-9.866626793850134
-19.734817631035575
-29.61237022237292
-39.51443753874778
-49.45942954537921
-59.46193456521771
-69.52712244594441
-79.64919129585788
-89.81347989057083
-100
100
89.81731942700281
79.65639040483168
69.5367295384571
59.472623988225614
49.46972240327967
39.523075591096315
29.618618800895153
19.738580667273954
9.868209043371566
-0.00016888023667188667
-9.868544706473559
-19.73890814523172
-29.618930397152617
-39.52336028699144
-49.469970110988065
-59.47282603344875
-69.53688145509025
-79.65649086025087
-89.81736920162442
-100
100
89.82825607533955
79.67690423600605
69.56414716564065
59.50321090512446