# vtk DataFile Version 4.1
Header:
ASCII

DATASET UNSTRUCTURED_GRID
POINTS 9261 double
-1 -1 -1
-0.9 -1 -1
-0.8 -1 -1
-0.7 -1 -1
-0.6 -1 -1
-0.5 -1 -1
-0.3999999999999999 -1 -1
-0.29999999999999993 -1 -1
-0.19999999999999996 -1 -1
-0.09999999999999998 -1 -1
0 -1 -1
0.10000000000000009 -1 -1
0.20000000000000018 -1 -1
0.30000000000000004 -1 -1
0.40000000000000013 -1 -1
0.5 -1 -1
0.6000000000000001 -1 -1
0.7000000000000002 -1 -1
0.8 -1 -1
0.9000000000000001 -1 -1
1 -1 -1
-1 -0.9 -1
-0.9 -0.9 -1
-0.8 -0.9 -1
-0.7 -0.9 -1
-0.6 -0.9 -1
-0.5 -0.9 -1
-0.3999999999999999 -0.9 -1
-0.29999999999999993 -0.9 -1
-0.19999999999999996 -0.9 -1
-0.09999999999999998 -0.9 -1
0 -0.9 -1
0.10000000000000009 -0.9 -1
0.20000000000000018 -0.9 -1
0.30000000000000004 -0.9 -1
0.40000000000000013 -0.9 -1
0.5 -0.9 -1
0.6000000000000001 -0.9 -1
0.7000000000000002 -0.9 -1
0.8 -0.9 -1
0.9000000000000001 -0.9 -1
1 -0.9 -1
-1 -0.8 -1
-0.9 -0.8 -1
-0.8 -0.8 -1
-0.7 -0.8 -1
-0.6 -0.8 -1
-0.5 -0.8 -1
-0.3999999999999999 -0.8 -1
-0.29999999999999993 -0.8 -1
-0.19999999999999996 -0.8 -1
-0.09999999999999998 -0.8 -1
0 -0.8 -1
0.10000000000000009 -0.8 -1
0.20000000000000018 -0.8 -1
0.30000000000000004 -0.8 -1
0.40000000000000013 -0.8 -1
0.5 -0.8 -1
0.6000000000000001 -0.8 -1
0.7000000000000002 -0.8 -1
0.8 -0.8 -1
0.9000000000000001 -0.8 -1
1 -0.8 -1
-1 -0.7 -1
-0.9 -0.7 -1
-0.8 -0.7 -1
-0.7 -0.7 -1
-0.6 -0.7 -1
-0.5 -0.7 -1
-0.3999999999999999 -0.7 -1
-0.29999999999999993 -0.7 -1
-0.19999999999999996 -0.7 -1
-0.09999999999999998 -0.7 -1
0 -0.7 -1
0.10000000000000009 -0.7 -1
0.20000000000000018 -0.7 -1
0.30000000000000004 -0.7 -1
0.40000000000000013 -0.7 -1
0.5 -0.7 -1
0.6000000000000001 -0.7 -1
0.7000000000000002 -0.7 -1
0.8 -0.7 -1
0.9000000000000001 -0.7 -1
1 -0.7 -1
-1 -0.6 -1
-0.9 -0.6 -1
-0.8 -0.6 -1
-0.7 -0.6 -1
-0.6 -0.6 -1
-0.5 -0.6 -1
-0.3999999999999999 -0.6 -1
-0.29999999999999993 -0.6 -1
-0.19999999999999996 -0.6 -1
-0.09999999999999998 -0.6 -1
0 -0.6 -1
0.10000000000000009 -0.6 -1
0.20000000000000018 -0.6 -1
0.30000000000000004 -0.6 -1
0.40000000000000013 -0.6 -1
0.5 -0.6 -1
0.6000000000000001 -0.6 -1
0.7000000000000002 -0.6 -1
0.8 -0.6 -1
0.9000000000000001 -0.6 -1
1 -0.6 -1
-1 -0.5 -1
-0.9 -0.5 -1
-0.8 -0.5 -1
-0.7 -0.5 -1
-0.6 -0.5 -1
-0.5 -0.5 -1
-0.3999999999999999 -0.5 -1
-0.29999999999999993 -0.5 -1
-0.19999999999999996 -0.5 -1
-0.09999999999999998 -0.5 -1
0 -0.5 -1
0.10000000000000009 -0.5 -1
0.20000000000000018 -0.5 -1
0.30000000000000004 -0.5 -1
0.40000000000000013 -0.5 -1
0.5 -0.5 -1
0.6000000000000001 -0.5 -1
0.7000000000000002 -0.5 -1
0.8 -0.5 -1
0.9000000000000001 -0.5 -1
1 -0.5 -1
-1 -0.3999999999999999 -1
-0.9 -0.3999999999999999 -1
-0.8 -0.3999999999999999 -1
-0.7 -0.3999999999999999 -1
-0.6 -0.3999999999999999 -1
-0.5 -0.3999999999999999 -1
-0.3999999999999999 -0.3999999999999999 -1
-0.29999999999999993 -0.3999999999999999 -1
-0.19999999999999996 -0.3999999999999999 -1
-0.09999999999999998 -0.3999999999999999 -1
0 -0.3999999999999999 -1
0.10000000000000009 -0.3999999999999999 -1
0.20000000000000018 -0.3999999999999999 -1
0.30000000000000004 -0.3999999999999999 -1
0.40000000000000013 -0.3999999999999999 -1
0.5 -0.3999999999999999 -1
0.6000000000000001 -0.3999999999999999 -1
0.7000000000000002 -0.3999999999999999 -1
0.8 -0.3999999999999999 -1
0.9000000000000001 -0.3999999999999999 -1
1 -0.3999999999999999 -1
-1 -0.29999999999999993 -1
-0.9 -0.29999999999999993 -1
-0.8 -0.29999999999999993 -1
-0.7 -0.29999999999999993 -1
-0.6 -0.29999999999999993 -1
-0.5 -0.29999999999999993 -1
-0.3999999999999999 -0.29999999999999993 -1
-0.29999999999999993 -0.29999999999999993 -1
-0.19999999999999996 -0.29999999999999993 -1
-0.09999999999999998 -0.29999999999999993 -1
0 -0.29999999999999993 -1
0.10000000000000009 -0.29999999999999993 -1
0.20000000000000018 -0.29999999999999993 -1
0.30000000000000004 -0.29999999999999993 -1
0.40000000000000013 -0.29999999999999993 -1
0.5 -0.29999999999999993 -1
0.6000000000000001 -0.29999999999999993 -1
0.7000000000000002 -0.29999999999999993 -1
0.8 -0.29999999999999993 -1
0.9000000000000001 -0.29999999999999993 -1
1 -0.29999999999999993 -1
-1 -0.19999999999999996 -1
-0.9 -0.19999999999999996 -1
-0.8 -0.19999999999999996 -1
-0.7 -0.19999999999999996 -1
-0.6 -0.19999999999999996 -1
-0.5 -0.19999999999999996 -1
-0.3999999999999999 -0.19999999999999996 -1
-0.29999999999999993 -0.19999999999999996 -1
-0.19999999999999996 -0.19999999999999996 -1
-0.09999999999999998 -0.19999999999999996 -1
0 -0.19999999999999996 -1
0.10000000000000009 -0.19999999999999996 -1
0.20000000000000018 -0.19999999999999996 -1
0.30000000000000004 -0.19999999999999996 -1
0.40000000000000013 -0.19999999999999996 -1
0.5 -0.19999999999999996 -1
0.6000000000000001 -0.19999999999999996 -1
0.7000000000000002 -0.19999999999999996 -1
0.8 -0.19999999999999996 -1
0.9000000000000001 -0.19999999999999996 -1
1 -0.19999999999999996 -1
-1 -0.09999999999999998 -1
-0.9 -0.09999999999999998 -1
-0.8 -0.09999999999999998 -1
-0.7 -0.09999999999999998 -1
-0.6 -0.09999999999999998 -1
-0.5 -0.09999999999999998 -1
-0.3999999999999999 -0.09999999999999998 -1
-0.29999999999999993 -0.09999999999999998 -1
-0.19999999999999996 -0.09999999999999998 -1
-0.09999999999999998 -0.09999999999999998 -1
0 -0.09999999999999998 -1
0.10000000000000009 -0.09999999999999998 -1
0.20000000000000018 -0.09999999999999998 -1
0.30000000000000004 -0.09999999999999998 -1
0.40000000000000013 -0.09999999999999998 -1
0.5 -0.09999999999999998 -1
0.6000000000000001 -0.09999999999999998 -1
0.7000000000000002 -0.09999999999999998 -1
0.8 -0.09999999999999998 -1
0.9000000000000001 -0.09999999999999998 -1
1 -0.09999999999999998 -1
-1 0 -1
-0.9 0 -1
-0.8 0 -1
-0.7 0 -1
-0.6 0 -1
-0.5 0 -1
-0.3999999999999999 0 -1
-0.29999999999999993 0 -1
-0.19999999999999996 0 -1
-0.09999999999999998 0 -1
0 0 -1
0.10000000000000009 0 -1
0.20000000000000018 0 -1
0.30000000000000004 0 -1
0.40000000000000013 0 -1
0.5 0 -1
0.6000000000000001 0 -1
0.7000000000000002 0 -1
0.8 0 -1
0.9000000000000001 0 -1
1 0 -1
-1 0.10000000000000009 -1
-0.9 0.10000000000000009 -1
-0.8 0.10000000000000009 -1
-0.7 0.10000000000000009 -1
-0.6 0.10000000000000009 -1
-0.5 0.10000000000000009 -1
-0.3999999999999999 0.10000000000000009 -1
-0.29999999999999993 0.10000000000000009 -1
-0.19999999999999996 0.10000000000000009 -1
-0.09999999999999998 0.10000000000000009 -1
0 0.10000000000000009 -1
0.10000000000000009 0.10000000000000009 -1
0.20000000000000018 0.10000000000000009 -1
0.30000000000000004 0.10000000000000009 -1
0.40000000000000013 0.10000000000000009 -1
0.5 0.10000000000000009 -1
0.6000000000000001 0.10000000000000009 -1
0.7000000000000002 0.10000000000000009 -1
0.8 0.10000000000000009 -1
0.9000000000000001 0.10000000000000009 -1
1 0.10000000000000009 -1
-1 0.20000000000000018 -1
-0.9 0.20000000000000018 -1
-0.8 0.20000000000000018 -1
-0.7 0.20000000000000018 -1
-0.6 0.20000000000000018 -1
-0.5 0.20000000000000018 -1
-0.3999999999999999 0.20000000000000018 -1
-0.29999999999999993 0.20000000000000018 -1
-0.19999999999999996 0.20000000000000018 -1
-0.09999999999999998 0.20000000000000018 -1
0 0.20000000000000018 -1
0.10000000000000009 0.20000000000000018 -1
0.20000000000000018 0.20000000000000018 -1
0.30000000000000004 0.20000000000000018 -1
0.40000000000000013 0.20000000000000018 -1
0.5 0.20000000000000018 -1
0.6000000000000001 0.20000000000000018 -1
0.7000000000000002 0.20000000000000018 -1
0.8 0.20000000000000018 -1
0.9000000000000001 0.20000000000000018 -1
1 0.20000000000000018 -1
-1 0.30000000000000004 -1
-0.9 0.30000000000000004 -1
-0.8 0.30000000000000004 -1
-0.7 0.30000000000000004 -1
-0.6 0.30000000000000004 -1
-0.5 0.30000000000000004 -1
-0.3999999999999999 0.30000000000000004 -1
-0.29999999999999993 0.30000000000000004 -1
-0.19999999999999996 0.30000000000000004 -1
-0.09999999999999998 0.30000000000000004 -1
0 0.30000000000000004 -1
0.10000000000000009 0.30000000000000004 -1
0.20000000000000018 0.30000000000000004 -1
0.30000000000000004 0.30000000000000004 -1
0.40000000000000013 0.30000000000000004 -1
0.5 0.30000000000000004 -1
0.6000000000000001 0.30000000000000004 -1
0.7000000000000002 0.30000000000000004 -1
0.8 0.30000000000000004 -1
0.9000000000000001 0.30000000000000004 -1
1 0.30000000000000004 -1
-1 0.40000000000000013 -1
-0.9 0.40000000000000013 -1
-0.8 0.40000000000000013 -1
-0.7 0.40000000000000013 -1
-0.6 0.40000000000000013 -1
-0.5 0.40000000000000013 -1
-0.3999999999999999 0.40000000000000013 -1
-0.29999999999999993 0.40000000000000013 -1
-0.19999999999999996 0.40000000000000013 -1
-0.09999999999999998 0.40000000000000013 -1
0 0.40000000000000013 -1
0.10000000000000009 0.40000000000000013 -1
0.20000000000000018 0.40000000000000013 -1
0.30000000000000004 0.40000000000000013 -1
0.40000000000000013 0.40000000000000013 -1
0.5 0.40000000000000013 -1
0.6000000000000001 0.40000000000000013 -1
0.7000000000000002 0.40000000000000013 -1
0.8 0.40000000000000013 -1
0.9000000000000001 0.40000000000000013 -1
1 0.40000000000000013 -1
-1 0.5 -1
-0.9 0.5 -1
-0.8 0.5 -1
-0.7 0.5 -1
-0.6 0.5 -1
-0.5 0.5 -1
-0.3999999999999999 0.5 -1
-0.29999999999999993 0.5 -1
-0.19999999999999996 0.5 -1
-0.09999999999999998 0.5 -1
0 0.5 -1
0.10000000000000009 0.5 -1
0.20000000000000018 0.5 -1
0.30000000000000004 0.5 -1
0.40000000000000013 0.5 -1
0.5 0.5 -1
0.6000000000000001 0.5 -1
0.7000000000000002 0.5 -1
0.8 0.5 -1
0.9000000000000001 0.5 -1
1 0.5 -1
-1 0.6000000000000001 -1
-0.9 0.6000000000000001 -1
-0.8 0.6000000000000001 -1
-0.7 0.6000000000000001 -1
-0.6 0.6000000000000001 -1
-0.5 0.6000000000000001 -1
-0.3999999999999999 0.6000000000000001 -1
-0.29999999999999993 0.6000000000000001 -1
-0.19999999999999996 0.6000000000000001 -1
-0.09999999999999998 0.6000000000000001 -1
0 0.6000000000000001 -1
0.10000000000000009 0.6000000000000001 -1
0.20000000000000018 0.6000000000000001 -1
0.30000000000000004 0.6000000000000001 -1
0.40000000000000013 0.6000000000000001 -1
0.5 0.6000000000000001 -1
0.6000000000000001 0.6000000000000001 -1
[...]
POINT_DATA 9261
SCALARS temperature double 1
LOOKUP_TABLE default
100
89.93966372811444
79.88564975014947
69.84351626851966
59.81741258406077
49.80965307553232
39.820567839740114
29.848627495085612
19.890775919281573
9.942862976353277
7.12682259992089E-05
-9.942721963491628
-19.890639462436358
-29.84849859521762
-39.82044947375007
-49.809548206416885
-59.81732412924757
-69.84344698698362
-79.8856020430547
-89.93963939180065
-100
100
89.93806119962069
79.88263986059623
69.8394589217828
59.81277619374783
49.80494285062811
39.81625432546648
29.845092672580407
19.88828861066391
9.941583241547885
7.064764058159777E-05
-9.941443440918219
-19.8881532804926
-29.84496476278008
-39.81613677427466
-49.804838602607916
-59.812688172196204
-69.83938991280073
-79.88259230380343
-89.93803692760038
-100
100
89.9333226347662
79.87374184575584
69.82746964416158
59.799085769972294
49.791048952192526
39.80354769071125
29.83469557178747
19.880983014221563
9.937828299600802
6.865456797270637E-05
-9.937692393306222
-19.880851308575156
-29.834570858354958
-39.80343279042174
-49.79094675387867
-59.79899921192134
-69.82740158787969
-79.87369483748058
-89.93329860713358
-100
100
89.92567560573742
79.85938830626216
69.80814532083501
59.77704939021746
49.76872928887732
39.783187573612516
29.81808432748389
19.86934317110639
9.93185746342983
6.484703207368266E-05
-9.931729003608682
-19.869218419035956
-29.817965794696605
-39.78307787708503
-49.76863121777245
-59.776965894845944
-69.80807936399424
-79.85934257989078
-89.92565217860614
-100
100
89.91556013348026
79.84041164047282
69.78262429719844
59.747999468208086
49.73938527827148
39.756514571517414
29.79641079417246
19.85421519418339
9.924119045632603
5.835826530384532E-05
-9.924003297330435
-19.85410238280335
-29.796302998958826
-39.75641409758935
-49.73929474696562
-59.74792180071359
-69.78256253414672
-79.84036860288515
-89.91553801389153
-100
100
89.90369252671195
79.81816086129315
69.7527357659044
59.71404837071095
49.7051977583145
39.72556877761415
29.771387336689546
19.836831340292505
9.915256769433876
4.781804196090041E-05
-9.915161722621631
-19.83673812397375
-29.77129741117121
-39.72548397499444
-49.70512039544918
-59.71398122313741
-69.75268183957694
-79.8181230070232
-89.90367298326098
-100
100
89.89110097924859
79.79456581985329
69.7210788288696
59.67816360229353
49.66918003185271
39.69310961998591
29.74527634555684
19.818784354924215
9.906089749770945
3.146956624869059E-05
-9.906026897607664
-19.818721875808468
-29.745214830663794
-39.693050186318
-49.66912444704798
-59.678114239307334
-69.72103842933842
-79.79453706383036
-89.89108600746044
-100
100
89.87908864445126
79.77206685231728
69.69092396125755
59.644046706002165
49.63503982803418
39.66247083652029
29.72075246048494
19.80191798507723
9.897551391487598
7.640226832138941E-06
-9.89753560469227
-19.801900775798398
-29.720733287601035
-39.662449747297494
-49.6350176327475
-59.64402498621337
-69.69090481810048
-79.77205251063508
-89.87908095037908
-100
100
89.86909326250424
79.75335238390929
69.66586215113016
59.61573580364973
49.60678045228865
39.63719825806464
29.700609363781762
19.78812184395315
9.890584955928256
-2.449358417163736E-05
-9.890632756740079
-19.788166201133986
-29.700648278722227
-39.637230296332426
-49.606804971803896
-59.615753047424036
-69.66587314656026
-79.75335855030342
-89.86909594346663
-100
100
89.86244979411414
79.7409166248182
69.64921746092239
59.596953020001116
49.58806359648141
39.62050017543939
29.687338356836232
19.779056410036812
9.886009557982002
-6.408805109067051E-05
-9.886135869772524
-19.779177084961706
-29.687449742933975
-39.62059893122779
-49.588147110963014
-59.5970197099622
-69.64926680836436
-79.74094893866503
-89.8624657121156
-100
100
89.86011276803664
79.7365419675219
69.64336275101788
59.59034750404869
49.581483991679136
39.614632602927564
29.682675637120155
19.77586638902848
9.884386467102349
-0.00010836897963499548
-9.884600618720134
-19.776072704388987
-29.682868594004468
-39.61480674974352
-49.58163440665196
-59.59047041445204
-69.64345580370102
-79.73660411447459
-89.86014380185925
-100
100
89.86243022282979
79.74087846500582
69.64916262859397
59.59688424591465
49.58798414277357
39.62041349755993
29.687247653511726
19.778964374323984
9.885918257514055
-0.00015305643159874965
-9.886221114551743
-19.77925716987193
-29.68752310357983
-39.620663958991464
-49.58820241172241
-59.597064288356314
-69.649300186769
-79.74097104541218
-89.862476695517
-100
100
89.86905643428008
79.75328056459927
69.66575892503266
59.61560622963022
49.60663060662132
39.63703450491946
29.700437701750598
19.787947319056325
9.890411556784091
-0.00019362154458206704
-9.890794851024356
-19.788318465095696
-29.70078772243688
-39.637353935817416
-49.60691018989339
-59.61583800050501
-69.66593687098836
-79.75340083987798
-89.86911698285606
-100
100
89.87903850147663
79.771969042347
69.69078328260358
59.64386991500549
49.63483496934185
39.662246404551844
29.720516456279864
19.80167732726773
9.897311688898771
-0.00022652803302839424
-9.897760167647867
-19.802111707392335
-29.72092644525593
-39.66262107985121
-49.635163647381944
-59.64414314424614
-69.69099371268781
-79.77211167185558
-89.87911044660453
-100
100
89.89104203881045
79.79445079062255
69.7209132128662
59.67795509282812
49.66893778237959
39.69284328436736
29.74499517506029
19.81849650933931
9.905802111308853
-0.0002501339562443232
-9.906297229361165
-19.81897587215044
-29.745447475097055
-39.69325672185995
-49.66930078732826
-59.6782573575961
-69.72114648152214
-79.7946092215998
-89.89112207260077
-100
100
89.9036288837135
79.81803655855624
69.7525565336041
59.713822189048244
49.70493410170226
39.725277712456695
29.771078638712446
19.83651389962709
9.914938364063412
-0.0002647334943968863
-9.915462218597565
-19.837020686183838
-29.771556406899123
-39.72571420093552
-49.70531740894012
-59.71414162976591
-69.75280339351669
-79.81820446469736
-89.90371379831288
-100
100
89.9154948343103
79.84028397411787
69.78243987977473
59.74776610384334
49.73911225071259
39.7562118238579
29.796088172871784
19.853881905416277
9.923783433912948
-0.0002720412383206712
-9.924321564569247
-19.85440204285723
-29.796578001390927
-39.75665896026768
-49.73950479113283
-59.748093351457165
-69.78269298041766
-79.84045629527294
-89.91558205031718
-100
100
89.9256104645598
79.85926080571382
69.80796078405625
59.77681521784912
49.76845432332873
39.782881391830564
29.817756590746434
19.86900315658606
9.931513825066583
-0.0002744201805370259
-9.932056494122884
-19.869527255039205
-29.818249645645164
-39.783331073468574
-49.768848908544676
-59.77714417509604
-69.80821531497702
-79.85943420516162
-89.92569827089378
-100
100
89.93325837995161
79.87361594956941
69.827287109849
59.79885356931119
49.79077546450375
39.80324209125677
29.834367273575324
19.880641245556987
9.937481854326037
-0.00027421097865907397
-9.938023981515794
-19.881164491503775
-29.834859125669013
-39.80369034051902
-49.791168602312695
-59.799181275900736
-69.82754071514964
-79.87378877352232
-89.93334592021213
-100
100
89.9379977769732
79.8825155036247
69.83927839879931
59.81254616586141
49.80467136410961
39.815950264211914
29.844765255202773
19.88794699728485
9.941236274415097
-0.00027329200526099055
-9.941776505719215
-19.888468208954173
-29.8452549420989
-39.816396320550616
-49.80506244351447
-59.81287210977375
-69.83953064942399
-79.88268742826966
-89.93808487379336
-100
100
89.93960063139737
79.88552599942568
69.84333654688851
59.81718344061347
49.8093824369235
39.82026448471017
29.8483005705548
19.890434556000482
9.942516026465608
-0.0002728510873564176
-9.943055359600391
-19.890954832125242
-29.84878929237773
-39.82070958600458
-49.80977263031485
-59.81750862691825
-69.84358821152487
-79.88569753097933
-89.93968753253792
-100
100
89.93806153538468
79.88264051862899
69.83945987855482
59.81277742054844
49.804944316751765
39.816255997503355
29.845094510122678
19.888290561639558
9.941585241494929
7.262550161332704E-05
-9.941441551890943
-19.888151531832577
-29.84496318566384
-39.81613538275618
-49.8048374030751
-59.812687173477975
-69.83938913161191
-79.88259176324766
-89.93803665032233
-100
100
89.93632453388263
79.87938037792516
69.83507117611967
59.80777342447138
49.79987667970624
39.81163388310845
29.84132392191491
19.885648738473297
9.940230289645198
7.204761686502303E-05
-9.94008772930461
-19.885510757757704
-29.841193513417707
-39.811514007791956
-49.79977030687187
-59.80768352709431
-69.83500062282445
-79.87933171040038
-89.93629967847694
-100
100
89.93117389726346
79.86971545825038
69.82206680901106
59.79295842123372
49.78489276002533
39.7979911175661
29.83021709258489
19.877882172044504
9.93625269310462
7.020790388151399E-05
-9.93611372710776
-19.877747529767706
-29.830089604203287
-39.79787361410816
-49.784788147275954
-59.7928696955688
-69.82199694053111
-79.86966713153724
-89.93114917241999
-100
100
89.9228167816698
79.85404006387058
69.80099369630499
59.768989185676475
49.760710026934255
39.77604676789931
29.81242227601914
19.86548710318005
9.929922780237957
6.672823668069094E-05
-9.92979061164268
-19.86535878051732
-29.812300341661906
-39.77593383881296
-49.76060891077113
-59.768902915317724
-69.8009253926607
-79.85399261734332
-89.92279244133553
-100
100
89.9116778414527
79.83315714214675
69.77295148611725
59.73716029796923
49.72870613161714
39.74714159442241
29.789114567265194
19.84934282321624
9.921712570518691
6.080039432915241E-05
-9.921591992386167
-19.849225314175033
-29.789002238432843
-39.747036753772505
-49.72861144466277
-59.73707882812435
-69.77288650794469
-79.83311175340303
-89.91165447643291
-100
100
89.89848996013356
79.80844513635833
69.73980753467063
59.69963009860242
49.69111829546188
39.713383858435314
29.762081184064524
19.830748359174546
9.91230576929869
5.101676317420534E-05
-9.912204358547314
-19.830648875892575
-29.761985106445557
-39.713293060919476
-49.6910352178049
-59.6995577453913
-69.73974924675518
-79.80840412151106
-89.89846875350929
-100
100
89.88436022488824
79.78197941951916
69.70435187649451
59.65957766886282
49.651168407024734
39.677720318413236
29.73373610134166
19.81140313793657
9.902576441389725
3.539676344099796E-05
-9.902505747134677
-19.81133281684802
-29.733666789033922
-39.67765322286729
-49.65110550236456
-59.659521691818625
-69.70430598872154
-79.7819467260109
-89.88434319507957
-100
100
89.87075240375347
79.75649925119801
69.67024934289152
59.62113605354331
49.612972278831485
39.64381868507592
29.706990674138
19.79329105761467
9.893520174149229
1.1822848240250483E-05
-9.893495973181201
-19.793265380311894
-29.70696296392879
-39.643789131253214
-49.612941998797425
-59.621107020985264
-69.67022416476077
-79.75648059582723
-89.87074246266451
-100
100
89.85933677333536
79.73512818909542
69.64166683008659
59.58897247029227
49.581115196531
39.6156828226347
29.684935297912737
19.778456727956726
9.886138077192674
-2.0971805106295704E-05
-9.886178831022656
-19.77849391098434
-29.68496695196458
-39.61570758619727
-49.58113264157759
-59.58898326133372
-69.64167241857886
-79.73513046135321
-89.85933741137644
-100
100
89.85170403383397
79.72084021837027
69.62256635534352
59.56750297658755
49.55989792113678
39.59700779765883
29.670363058733585
19.76870030615891
9.881294351680634
-6.240302244137075E-05
-9.881417256991945
-19.7688176128455
-29.670470966753044
-39.59710294013286
-49.55997770773724
-59.56756597365851
-69.62261240771433
-79.72087001869286
-89.85171859180466
-100
100
89.84901081782463
79.7157985462385
69.61582639413172
59.559929671650025
49.55241771630758
39.590431036265585
29.665235473868382
19.765266277351024
9.879576456238688
-0.00010934934416578779
-9.879792705875454
-19.765474810607884
-29.66543073166345
-39.59060715434264
-49.55256949319563
-59.56005316845292
-69.61591938684974
-79.71586032047645
-89.84904154355134
-100
100
89.85168265375077
79.72079851274476
69.62250644481867
59.56742791674257
49.55981150716951
39.596913964518485
29.67026550549176
19.76860191254243
9.881197185088705
-0.00015691147190793897
-9.881507886361165
-19.768902966255503
-29.670549295999987
-39.597172384378155
-49.56003655746564
-59.567613143727385
-69.62264744563457
-79.720893056186
-89.85172997311457
-100
100
89.85929679920258
79.73505022737304
69.64155480620616
59.588832086791335
49.58095332277826
39.615506807450195
29.684751798079393
19.778271221171643
9.885954520034081
-0.00019970120091789
-9.886350223809817
-19.778655196840653
-29.685114890797315
-39.615838694251714
-49.58124391110022
-59.58907260519027
-69.64173899783425
-79.73517435567969
-89.85935914914413
-100
100
89.87069851264917
79.75639414083976
69.67009826887957
59.620946506197086
49.6127533260547
39.64357980052033
29.706740746295207
19.793037385907404
9.893268378694604
-0.00023376306795908075
-9.893731529717524
-19.793486885624823
-29.707165965442638
-39.643969101554724
-49.613094970569875
-59.62123028223376
-69.67031640605802
-79.7565416786708
-89.87077280799107
-100
100
89.88429762985464
79.78185730123617
69.70417621102195
59.659356900046696
49.65091260963683
39.67744012517147
29.73344146658038
19.811102626826834
9.902276960709324
-0.0002574044777882145
-9.90278677976626
-19.81159698256162
-29.733908796859662
-39.677867905844266
-49.65128843189
-59.65966968348817
-69.7044173067694
-79.78202080805035
-89.88438013241603
-100
100
89.89842321069368
79.8083148300661
69.7396198327749
59.69939361792416
49.690843280728664
39.71308110836647
29.761761060555248
19.83042004456944
9.911977100396474
-0.00027125471471400875
-9.912514085711083
-19.830940106331347
-29.76225199797153
-39.71353013003956
-49.69123778661056
-59.699722335598715
-69.73987368278922
-79.80848733651342
-89.89851038889572
-100
100
89.91161014707723
79.83302485944166
69.77276057488932
59.73691904772631
49.72842438093782
39.746829815664064
29.788782996888422
19.849000895946315
9.921368709251794
-0.00027745247338267776
-9.921917692865112
-19.849531900491
-29.789283505561777
-39.747287046769536
-49.728825951316814
-59.73725381806937
-69.77301940396282
-79.83320099504523
-89.91169925758868
-100
100
89.92274990073173
79.85390921289466
69.80080444589679
59.768749272664344
49.76042866657074
39.77573387988161
29.812087787232677
19.865140453833774
9.929572710800098
-0.0002787129586928061
-9.930123959134795
-19.86567306858454
-29.812589130948254
-39.77619134931206
-49.76083020626262
-59.76908404848433
-69.80106344294828
-79.85408561366133
-89.92283920857997
-100
100
89.93110839084288
79.86958714819848
69.82188086618916
59.79272203941629
49.78461455950879
39.797680496198254
29.829883638959696
19.87753523891947
9.935901159794444
-0.0002775999258568529
-9.93645003975586
-19.8780651381695
-29.830381911812673
-39.79813473920293
-49.78501303993305
-59.79305422643565
-69.82213792987885
-79.8697623119544
-89.93119710800191
-100
100
89.9362601492851
79.87925416056044
69.8348880118342
59.8075401277239
49.79960146221189
39.81132578324353
29.840992287517054
19.88530283059761
9.939879031559999
-0.0002761066485625907
-9.940424859386159
-19.885829526649097
-29.841487233400226
-39.8117767247043
-49.799996886365385
-59.80786971907978
-69.83514308762338
-79.87942800494581
-89.9363482151421
-100
100
89.93799757157304
79.88251508842397
69.83927776581913
59.812545305244925
49.80467026668568
39.81594892467872
29.844763675467068
19.887945189387636
9.941234262646597
-0.0002754700113897224
-9.941778798918076
-19.88847055376233
-29.84525726418103
-39.81639853760105
-49.80506446906835
-59.81287385807865
-69.83953204119089
-79.88268839680373
-89.93808537076933
-100
100
89.93332399725321
79.87374451347121
69.82747351821709
59.799090731948226
49.79105487891665
39.8035544513322
29.8347030079919
19.880990917520702
9.937836406115508
7.666959852034583E-05
-9.93768474717448
-19.880844242889566
-29.83456449581381
-39.8034271798537
-49.7909419128894
-59.798995172295186
-69.82739841908479
-79.87369263898951
-89.93329747738346
-100
100
89.93117491707244
79.86971745269946
69.82206970088721
59.792962120071735
49.78489717500029
39.79799615524408
29.830222639655137
19.877888075079404
9.936258752296242
7.61960395960215E-05
-9.936108024744367
-19.877742274334388
-29.83008488408232
-39.79786945776613
-49.78478455962961
-59.79286669557005
-69.82199458030983
-79.86966548942378
-89.93114832694224
-100
100
89.92475551975413
79.85769063473936
69.8059395754313
59.77468890151693
49.76657286983472
39.78150272560297
29.81697495865905
19.86874684540475
9.931623835920536
7.475081909241732E-05
-9.931475944266143
-19.8686036918978
-29.8168394762421
-39.78137773762076
-49.76646128859944
-59.77459386978541
-69.80586438910446
-79.85763841185161
-89.92472872561274
-100
100
89.91419218690561
79.8379054296201
69.77942758863524
59.74471566300307
49.736626657384214
39.75469825774984
29.795597012263336
19.854103952625536
9.924241909646256
7.21802796210258E-05
-9.92409904047832
-19.85396543006326
-29.79546545701277
-39.75457619751886
-49.736516859993785
-59.74462136603469
-69.77935239861797
-79.8378528813951
-89.91416512123877
-100
100
89.89983339121474
79.81101686147882
69.74343341104226
59.70412908654138
49.696281376031024
39.71887106361697
29.767318993928733
19.834949765571732
9.91467089070349
6.793166084928526E-05
-9.91453627024437
-19.834818759444396
-29.767193736556738
-39.71875375354968
-49.696174695995666
-59.70403645807866
-69.74335885101443
-79.81096438653518
-89.89980624912695
-100
100
89.88243027576328
79.77842773471355
69.69984620299412
59.65511896077503
49.64784835082635
39.67627690626805
29.734140809421632
19.812803834344088
9.903736649698875
6.061438685353582E-05
-9.903616228578715
-19.81268572498732
-29.734026556536456
-39.67616834429921
-49.64774812997226
-59.65503080417246
-69.69977452599278
-79.77837694581325
-89.88240390448476
-100
100
89.86331282803188
79.74261942317278
69.6519806037727
59.601440013690436
49.595123028186634
39.63039281017199
29.698932566344237
19.78970564507408
9.89249669645071
4.76024447022827E-05
-9.892401585467962
-19.789611015299027
-29.698838973230668
-39.63030170479127
-49.595037100260406
-59.60136306249782
-69.65191725718842
-79.74257417993685
-89.86328923682505
-100
100
89.84445463101544
79.70728033105213
69.6047528950177
59.54859378319052
49.54350511082978
39.58593310410352
29.665330476737406
19.76806151113312
9.88212885877622
2.5385355961776712E-05
-9.882077482828079
-19.76800819274138
-29.66527483195967
-39.585875729268544
-49.54344801823714
-59.54854061054351
-69.60470780607628
-79.70724751348304
-89.8444373335647
-100
100
89.82830645083205
79.67700266797385
69.56428867103544
59.50338790770778
49.49955708101419
39.54840830031959
29.637355318527366
19.750340663950716
9.873765620858824
-9.184860689182006E-06
-9.873782445518716
-19.750353580791987
-29.637362003488377
-39.54840784903053
-49.49955021096983
-59.5033764445723
-69.56427586794906
-79.6769917596178
-89.82830022655328
-100
100
89.81734686063842
79.65644403520827
69.53680677419773
59.4727205015105
49.469832893860506
39.52319373859592
29.61873959482399
19.738700168944213
9.8683254115091
-5.620818390100757E-05
-9.868436159291203
-19.73880496799822
-29.6188348387719
-39.52327564737584
-49.46989898035659
-59.4727702772082
-69.53684106739463
-79.65646502577859
-89.81735666723942
-100
100
89.8134504963709
79.649131317072
69.52703035346532
59.46180984818378
49.45927394695315
39.51425543482651
29.61216828819865
19.73460245669926
9.866404985577063
-0.00011204516883819848
-9.866626793940398
-19.734817631122496
-29.61237022245471
-39.514437538822484
-49.45942954544498
-59.461934565272706
-69.52712244598702
-79.64919129588704
-89.8134798905856
-100
100
89.81731942698633
79.65639040479945
69.53672953841034
59.472623988166184
49.46972240320947
39.52307559101765
29.618618800810154
19.73858066718479
9.868209043280233
-0.00016888032831066657
-9.868544706563727
-19.73890814531871
-29.618930397234553
-39.52336028706646
-49.46997011105419
-59.47282603350403
-69.53688145513323
-79.65649086028014
-89.8173692016392
-100
100
89.8282560753235
79.67690423597475
69.56414716559523
59.503210905066524
49.499354716717235
39.5481908262454